/*--------------------------------*- C++ -*----------------------------------*\
  =========                 |
  \\      /  F ield         | OpenFOAM: The Open Source CFD Toolbox
   \\    /   O peration     | Website:  https://openfoam.org
    \\  /    A nd           | Version:  13
     \\/     M anipulation  |
\*---------------------------------------------------------------------------*/
FoamFile
{
    format      ascii;
    class       volVectorField;
    location    "0";
    object      C;
}
// * * * * * * * * * * * * * * * * * * * * * * * * * * * * * * * * * * * * * //

dimensions      [0 1 0 0 0 0 0];

internalField   nonuniform List<vector> 
21800
(
(-0.284997 0.0147091 -0.284997)
(-0.25499 0.0147096 -0.284996)
(-0.224985 0.0147104 -0.284995)
(-0.194981 0.0147115 -0.284995)
(-0.164978 0.0147127 -0.284993)
(-0.134978 0.0147141 -0.284992)
(-0.10498 0.0147154 -0.284991)
(-0.0749837 0.0147167 -0.28499)
(-0.0449894 0.0147175 -0.284989)
(-0.0149964 0.014718 -0.284988)
(0.0149964 0.014718 -0.284988)
(0.0449894 0.0147175 -0.284989)
(0.0749837 0.0147167 -0.28499)
(0.10498 0.0147154 -0.284991)
(0.134978 0.0147141 -0.284992)
(0.164978 0.0147127 -0.284993)
(0.194981 0.0147115 -0.284995)
(0.224985 0.0147104 -0.284995)
(0.25499 0.0147096 -0.284996)
(0.284997 0.0147091 -0.284997)
(-0.284996 0.0441271 -0.284996)
(-0.254989 0.0441283 -0.284996)
(-0.224982 0.0441307 -0.284995)
(-0.194978 0.0441336 -0.284993)
(-0.164975 0.0441373 -0.284992)
(-0.134975 0.0441412 -0.28499)
(-0.104977 0.0441452 -0.284989)
(-0.0749812 0.0441487 -0.284987)
(-0.0449877 0.0441514 -0.284986)
(-0.0149958 0.0441528 -0.284985)
(0.0149958 0.0441528 -0.284985)
(0.0449877 0.0441514 -0.284986)
(0.0749812 0.0441487 -0.284987)
(0.104977 0.0441452 -0.284989)
(0.134975 0.0441412 -0.28499)
(0.164975 0.0441373 -0.284992)
(0.194978 0.0441336 -0.284993)
(0.224982 0.0441307 -0.284995)
(0.254989 0.0441283 -0.284996)
(0.284996 0.0441271 -0.284996)
(-0.284995 0.0735439 -0.284995)
(-0.254986 0.073546 -0.284995)
(-0.224979 0.0735495 -0.284993)
(-0.194973 0.0735543 -0.284992)
(-0.16497 0.07356 -0.28499)
(-0.134969 0.0735664 -0.284988)
(-0.104972 0.0735727 -0.284985)
(-0.0749768 0.0735783 -0.284983)
(-0.0449849 0.0735825 -0.284982)
(-0.0149947 0.0735848 -0.284981)
(0.0149947 0.0735848 -0.284981)
(0.0449849 0.0735825 -0.284982)
(0.0749768 0.0735783 -0.284983)
(0.104972 0.0735727 -0.284985)
(0.134969 0.0735664 -0.284988)
(0.16497 0.07356 -0.28499)
(0.194973 0.0735543 -0.284992)
(0.224979 0.0735495 -0.284993)
(0.254986 0.073546 -0.284995)
(0.284995 0.0735439 -0.284995)
(-0.284994 0.102959 -0.284994)
(-0.254983 0.102962 -0.284993)
(-0.224974 0.102967 -0.284992)
(-0.194967 0.102973 -0.284989)
(-0.164962 0.10298 -0.284987)
(-0.134961 0.102989 -0.284984)
(-0.104964 0.102997 -0.284981)
(-0.0749708 0.103004 -0.284978)
(-0.0449809 0.10301 -0.284976)
(-0.0149934 0.103013 -0.284974)
(0.0149934 0.103013 -0.284974)
(0.0449808 0.10301 -0.284976)
(0.0749708 0.103004 -0.284978)
(0.104964 0.102997 -0.284981)
(0.134961 0.102989 -0.284984)
(0.164962 0.10298 -0.284987)
(0.194967 0.102973 -0.284989)
(0.224974 0.102967 -0.284992)
(0.254983 0.102962 -0.284993)
(0.284994 0.102959 -0.284994)
(-0.284993 0.132373 -0.284993)
(-0.254979 0.132376 -0.284992)
(-0.224968 0.132381 -0.284989)
(-0.194959 0.132388 -0.284987)
(-0.164953 0.132397 -0.284983)
(-0.134951 0.132407 -0.284979)
(-0.104955 0.132416 -0.284975)
(-0.0749632 0.132425 -0.284971)
(-0.044976 0.132432 -0.284968)
(-0.0149915 0.132436 -0.284967)
(0.0149915 0.132436 -0.284967)
(0.0449759 0.132432 -0.284968)
(0.0749632 0.132425 -0.284971)
(0.104955 0.132416 -0.284975)
(0.134951 0.132407 -0.284979)
(0.164953 0.132397 -0.284983)
(0.194959 0.132388 -0.284987)
(0.224968 0.132381 -0.284989)
(0.254979 0.132376 -0.284992)
(0.284993 0.132373 -0.284993)
(-0.284991 0.161784 -0.284991)
(-0.254975 0.161787 -0.28499)
(-0.224961 0.161792 -0.284987)
(-0.19495 0.1618 -0.284983)
(-0.164943 0.161809 -0.284979)
(-0.13494 0.16182 -0.284973)
(-0.104944 0.16183 -0.284968)
(-0.0749546 0.16184 -0.284963)
(-0.0449701 0.161847 -0.284959)
(-0.0149896 0.161852 -0.284957)
(0.0149896 0.161852 -0.284957)
(0.0449701 0.161847 -0.284959)
(0.0749546 0.16184 -0.284963)
(0.104944 0.16183 -0.284968)
(0.13494 0.16182 -0.284973)
(0.164943 0.161809 -0.284979)
(0.19495 0.1618 -0.284983)
(0.224961 0.161792 -0.284987)
(0.254975 0.161787 -0.28499)
(0.284991 0.161784 -0.284991)
(-0.28499 0.191193 -0.28499)
(-0.25497 0.191196 -0.284988)
(-0.224953 0.191201 -0.284984)
(-0.19494 0.191208 -0.28498)
(-0.164932 0.191216 -0.284974)
(-0.134929 0.191226 -0.284968)
(-0.104933 0.191236 -0.284961)
(-0.0749454 0.191246 -0.284955)
(-0.044964 0.191253 -0.28495)
(-0.0149874 0.191257 -0.284947)
(0.0149874 0.191257 -0.284947)
(0.044964 0.191253 -0.28495)
(0.0749454 0.191246 -0.284955)
(0.104933 0.191236 -0.284961)
(0.134929 0.191226 -0.284968)
(0.164932 0.191216 -0.284974)
(0.19494 0.191208 -0.28498)
(0.224953 0.191201 -0.284984)
(0.25497 0.191196 -0.284988)
(0.28499 0.191193 -0.28499)
(-0.284988 0.220599 -0.284988)
(-0.254966 0.220601 -0.284986)
(-0.224946 0.220605 -0.284982)
(-0.194931 0.220611 -0.284977)
(-0.164921 0.220618 -0.28497)
(-0.134918 0.220626 -0.284962)
(-0.104923 0.220634 -0.284954)
(-0.0749363 0.220643 -0.284946)
(-0.0449579 0.220649 -0.284941)
(-0.0149853 0.220653 -0.284938)
(0.0149853 0.220653 -0.284938)
(0.0449579 0.220649 -0.284941)
(0.0749363 0.220643 -0.284946)
(0.104923 0.220634 -0.284954)
(0.134918 0.220626 -0.284962)
(0.164921 0.220618 -0.28497)
(0.194931 0.220611 -0.284977)
(0.224946 0.220605 -0.284982)
(0.254966 0.220601 -0.284986)
(0.284988 0.220599 -0.284988)
(-0.284987 0.250003 -0.284987)
(-0.254962 0.250004 -0.284984)
(-0.224941 0.250007 -0.28498)
(-0.194923 0.25001 -0.284973)
(-0.164912 0.250014 -0.284966)
(-0.134908 0.250019 -0.284957)
(-0.104913 0.250025 -0.284948)
(-0.0749283 0.25003 -0.284939)
(-0.0449525 0.250035 -0.284933)
(-0.0149834 0.250037 -0.28493)
(0.0149833 0.250037 -0.28493)
(0.0449525 0.250035 -0.284933)
(0.0749283 0.25003 -0.284939)
(0.104913 0.250025 -0.284948)
(0.134908 0.250019 -0.284957)
(0.164912 0.250014 -0.284966)
(0.194923 0.25001 -0.284973)
(0.224941 0.250007 -0.28498)
(0.254962 0.250004 -0.284984)
(0.284987 0.250003 -0.284987)
(-0.284986 0.279406 -0.284986)
(-0.25496 0.279406 -0.284983)
(-0.224936 0.279406 -0.284978)
(-0.194918 0.279406 -0.284971)
(-0.164905 0.279407 -0.284963)
(-0.134901 0.279408 -0.284953)
(-0.104906 0.279409 -0.284943)
(-0.0749221 0.279411 -0.284934)
(-0.0449484 0.279413 -0.284928)
(-0.014982 0.279414 -0.284924)
(0.014982 0.279414 -0.284924)
(0.0449484 0.279413 -0.284928)
(0.0749221 0.279411 -0.284934)
(0.104906 0.279409 -0.284943)
(0.134901 0.279408 -0.284953)
(0.164905 0.279407 -0.284963)
(0.194918 0.279406 -0.284971)
(0.224936 0.279406 -0.284978)
(0.25496 0.279406 -0.284983)
(0.284986 0.279406 -0.284986)
(-0.284986 0.308808 -0.284986)
(-0.254958 0.308807 -0.284983)
(-0.224935 0.308804 -0.284977)
(-0.194915 0.308801 -0.28497)
(-0.164902 0.308798 -0.284962)
(-0.134897 0.308794 -0.284951)
(-0.104902 0.308791 -0.284941)
(-0.074919 0.308789 -0.284932)
(-0.0449462 0.308787 -0.284925)
(-0.0149812 0.308787 -0.284922)
(0.0149812 0.308787 -0.284922)
(0.0449462 0.308787 -0.284925)
(0.074919 0.308789 -0.284932)
(0.104902 0.308791 -0.284941)
(0.134897 0.308794 -0.284951)
(0.164902 0.308798 -0.284962)
(0.194915 0.308801 -0.28497)
(0.224935 0.308804 -0.284977)
(0.254958 0.308807 -0.284983)
(0.284986 0.308808 -0.284986)
(-0.284986 0.338211 -0.284986)
(-0.254959 0.338208 -0.284983)
(-0.224935 0.338204 -0.284978)
(-0.194916 0.338197 -0.284971)
(-0.164902 0.33819 -0.284962)
(-0.134898 0.338182 -0.284952)
(-0.104903 0.338175 -0.284942)
(-0.0749193 0.338169 -0.284932)
(-0.0449464 0.338164 -0.284926)
(-0.0149812 0.338162 -0.284922)
(0.0149811 0.338162 -0.284922)
(0.0449464 0.338164 -0.284926)
(0.0749193 0.338169 -0.284932)
(0.104903 0.338175 -0.284942)
(0.134898 0.338182 -0.284952)
(0.164902 0.33819 -0.284962)
(0.194916 0.338197 -0.284971)
(0.224935 0.338204 -0.284978)
(0.254959 0.338208 -0.284983)
(0.284986 0.338211 -0.284986)
(-0.284986 0.367615 -0.284986)
(-0.25496 0.367611 -0.284983)
(-0.224938 0.367605 -0.284979)
(-0.194919 0.367596 -0.284972)
(-0.164907 0.367586 -0.284964)
(-0.134902 0.367575 -0.284955)
(-0.104907 0.367564 -0.284945)
(-0.0749232 0.367555 -0.284936)
(-0.0449489 0.367548 -0.28493)
(-0.0149822 0.367544 -0.284926)
(0.0149822 0.367544 -0.284926)
(0.044949 0.367548 -0.28493)
(0.0749232 0.367555 -0.284936)
(0.104907 0.367564 -0.284945)
(0.134903 0.367575 -0.284955)
(0.164907 0.367586 -0.284964)
(0.194919 0.367596 -0.284972)
(0.224938 0.367605 -0.284979)
(0.25496 0.367611 -0.284983)
(0.284986 0.367615 -0.284986)
(-0.284987 0.397022 -0.284987)
(-0.254964 0.397017 -0.284985)
(-0.224943 0.397009 -0.284981)
(-0.194926 0.396999 -0.284975)
(-0.164915 0.396987 -0.284968)
(-0.134911 0.396974 -0.28496)
(-0.104916 0.396961 -0.284951)
(-0.0749303 0.39695 -0.284943)
(-0.0449539 0.396942 -0.284938)
(-0.0149838 0.396938 -0.284935)
(0.0149838 0.396938 -0.284935)
(0.0449539 0.396942 -0.284938)
(0.0749303 0.39695 -0.284943)
(0.104916 0.396961 -0.284951)
(0.134911 0.396974 -0.28496)
(0.164915 0.396987 -0.284968)
(0.194926 0.396999 -0.284975)
(0.224943 0.397009 -0.284981)
(0.254964 0.397017 -0.284985)
(0.284987 0.397022 -0.284987)
(-0.284989 0.42643 -0.284989)
(-0.254968 0.426426 -0.284987)
(-0.22495 0.426418 -0.284983)
(-0.194935 0.426407 -0.284978)
(-0.164926 0.426394 -0.284972)
(-0.134922 0.42638 -0.284965)
(-0.104927 0.426367 -0.284958)
(-0.0749396 0.426355 -0.284952)
(-0.0449601 0.426347 -0.284948)
(-0.014986 0.426342 -0.284945)
(0.014986 0.426342 -0.284945)
(0.0449602 0.426347 -0.284948)
(0.0749397 0.426355 -0.284952)
(0.104927 0.426367 -0.284959)
(0.134922 0.42638 -0.284966)
(0.164926 0.426394 -0.284972)
(0.194935 0.426407 -0.284978)
(0.22495 0.426418 -0.284983)
(0.254968 0.426426 -0.284987)
(0.284989 0.42643 -0.284989)
(-0.284991 0.455842 -0.284991)
(-0.254973 0.455837 -0.284989)
(-0.224957 0.455829 -0.284986)
(-0.194945 0.455819 -0.284982)
(-0.164937 0.455807 -0.284977)
(-0.134935 0.455793 -0.284972)
(-0.104939 0.45578 -0.284967)
(-0.0749497 0.455769 -0.284962)
(-0.0449668 0.455761 -0.284958)
(-0.0149884 0.455757 -0.284956)
(0.0149885 0.455757 -0.284956)
(0.0449669 0.455761 -0.284958)
(0.0749497 0.455769 -0.284962)
(0.104939 0.45578 -0.284967)
(0.134935 0.455793 -0.284972)
(0.164937 0.455807 -0.284977)
(0.194945 0.455819 -0.284982)
(0.224957 0.455829 -0.284986)
(0.254973 0.455837 -0.284989)
(0.284991 0.455842 -0.284991)
(-0.284992 0.485256 -0.284992)
(-0.254978 0.485251 -0.284991)
(-0.224965 0.485244 -0.284989)
(-0.194956 0.485235 -0.284986)
(-0.164949 0.485223 -0.284982)
(-0.134947 0.485211 -0.284978)
(-0.104951 0.4852 -0.284974)
(-0.0749597 0.48519 -0.28497)
(-0.0449735 0.485182 -0.284968)
(-0.0149907 0.485178 -0.284966)
(0.0149908 0.485178 -0.284966)
(0.0449735 0.485182 -0.284968)
(0.0749597 0.48519 -0.284971)
(0.104951 0.4852 -0.284974)
(0.134947 0.485211 -0.284978)
(0.164949 0.485223 -0.284982)
(0.194956 0.485235 -0.284986)
(0.224965 0.485244 -0.284989)
(0.254978 0.485251 -0.284991)
(0.284992 0.485256 -0.284992)
(-0.284994 0.514671 -0.284994)
(-0.254982 0.514667 -0.284993)
(-0.224973 0.514661 -0.284991)
(-0.194965 0.514653 -0.284989)
(-0.16496 0.514643 -0.284986)
(-0.134959 0.514633 -0.284984)
(-0.104962 0.514623 -0.284981)
(-0.0749687 0.514614 -0.284978)
(-0.0449795 0.514608 -0.284976)
(-0.0149929 0.514605 -0.284975)
(0.0149929 0.514605 -0.284975)
(0.0449795 0.514608 -0.284976)
(0.0749687 0.514614 -0.284978)
(0.104962 0.514623 -0.284981)
(0.134959 0.514633 -0.284984)
(0.16496 0.514643 -0.284986)
(0.194965 0.514653 -0.284989)
(0.224973 0.514661 -0.284991)
(0.254982 0.514667 -0.284993)
(0.284994 0.514671 -0.284994)
(-0.284995 0.544087 -0.284995)
(-0.254986 0.544084 -0.284995)
(-0.224979 0.544079 -0.284993)
(-0.194973 0.544072 -0.284992)
(-0.164969 0.544064 -0.28499)
(-0.134969 0.544056 -0.284988)
(-0.104971 0.544047 -0.284986)
(-0.0749764 0.54404 -0.284984)
(-0.0449846 0.544035 -0.284983)
(-0.0149946 0.544033 -0.284982)
(0.0149946 0.544033 -0.284982)
(0.0449846 0.544035 -0.284983)
(0.0749764 0.54404 -0.284984)
(0.104971 0.544047 -0.284986)
(0.134969 0.544056 -0.284988)
(0.16497 0.544064 -0.28499)
(0.194973 0.544072 -0.284992)
(0.224979 0.544079 -0.284993)
(0.254986 0.544084 -0.284995)
(0.284995 0.544087 -0.284995)
(-0.284996 0.573503 -0.284997)
(-0.25499 0.573501 -0.284996)
(-0.224984 0.573497 -0.284995)
(-0.19498 0.573491 -0.284994)
(-0.164977 0.573485 -0.284993)
(-0.134977 0.573479 -0.284991)
(-0.104979 0.573472 -0.28499)
(-0.0749827 0.573466 -0.284989)
(-0.0449887 0.573462 -0.284988)
(-0.0149961 0.57346 -0.284988)
(0.0149961 0.57346 -0.284988)
(0.0449887 0.573462 -0.284988)
(0.0749827 0.573466 -0.284989)
(0.104979 0.573472 -0.28499)
(0.134977 0.573479 -0.284991)
(0.164977 0.573485 -0.284993)
(0.19498 0.573492 -0.284994)
(0.224984 0.573497 -0.284995)
(0.25499 0.573501 -0.284996)
(0.284996 0.573503 -0.284997)
(-0.284997 0.60292 -0.284997)
(-0.254993 0.602918 -0.284997)
(-0.224989 0.602915 -0.284997)
(-0.194986 0.602911 -0.284996)
(-0.164984 0.602906 -0.284995)
(-0.134983 0.602901 -0.284994)
(-0.104985 0.602896 -0.284993)
(-0.0749875 0.602892 -0.284992)
(-0.044992 0.602888 -0.284992)
(-0.0149972 0.602887 -0.284991)
(0.0149972 0.602887 -0.284991)
(0.044992 0.602888 -0.284992)
(0.0749875 0.602892 -0.284992)
(0.104985 0.602896 -0.284993)
(0.134983 0.602901 -0.284994)
(0.164984 0.602906 -0.284995)
(0.194986 0.602911 -0.284996)
(0.224989 0.602915 -0.284997)
(0.254993 0.602918 -0.284997)
(0.284997 0.60292 -0.284997)
(-0.284998 0.632336 -0.284998)
(-0.254995 0.632335 -0.284998)
(-0.224992 0.632332 -0.284998)
(-0.19499 0.632329 -0.284997)
(-0.164989 0.632326 -0.284997)
(-0.134988 0.632322 -0.284996)
(-0.104989 0.632318 -0.284995)
(-0.0749914 0.632315 -0.284995)
(-0.0449944 0.632313 -0.284995)
(-0.014998 0.632312 -0.284994)
(0.014998 0.632312 -0.284994)
(0.0449944 0.632313 -0.284995)
(0.0749914 0.632315 -0.284995)
(0.104989 0.632318 -0.284995)
(0.134988 0.632322 -0.284996)
(0.164989 0.632326 -0.284997)
(0.19499 0.632329 -0.284997)
(0.224992 0.632332 -0.284998)
(0.254995 0.632335 -0.284998)
(0.284998 0.632336 -0.284998)
(-0.284999 0.661752 -0.284999)
(-0.254996 0.661751 -0.284999)
(-0.224994 0.661749 -0.284998)
(-0.194993 0.661747 -0.284998)
(-0.164992 0.661744 -0.284998)
(-0.134992 0.661742 -0.284997)
(-0.104992 0.661739 -0.284997)
(-0.074994 0.661737 -0.284997)
(-0.0449961 0.661735 -0.284996)
(-0.0149987 0.661734 -0.284996)
(0.0149987 0.661734 -0.284996)
(0.0449961 0.661735 -0.284996)
(0.074994 0.661737 -0.284997)
(0.104992 0.661739 -0.284997)
(0.134992 0.661742 -0.284997)
(0.164992 0.661744 -0.284998)
(0.194993 0.661747 -0.284998)
(0.224994 0.661749 -0.284998)
(0.254996 0.661751 -0.284999)
(0.284999 0.661752 -0.284999)
(-0.284999 0.691166 -0.284999)
(-0.254998 0.691166 -0.284999)
(-0.224996 0.691165 -0.284999)
(-0.194995 0.691163 -0.284999)
(-0.164995 0.691162 -0.284998)
(-0.134994 0.691159 -0.284998)
(-0.104995 0.691158 -0.284998)
(-0.074996 0.691156 -0.284998)
(-0.0449973 0.691155 -0.284998)
(-0.0149992 0.691154 -0.284997)
(0.0149992 0.691154 -0.284997)
(0.0449973 0.691155 -0.284998)
(0.074996 0.691156 -0.284998)
(0.104995 0.691158 -0.284998)
(0.134994 0.691159 -0.284998)
(0.164995 0.691162 -0.284998)
(0.194995 0.691163 -0.284999)
(0.224996 0.691165 -0.284999)
(0.254998 0.691166 -0.284999)
(0.284999 0.691166 -0.284999)
(-0.284999 0.720581 -0.284999)
(-0.254998 0.720581 -0.284999)
(-0.224997 0.72058 -0.284999)
(-0.194997 0.720579 -0.284999)
(-0.164996 0.720577 -0.284999)
(-0.134996 0.720576 -0.284999)
(-0.104997 0.720575 -0.284999)
(-0.0749973 0.720574 -0.284999)
(-0.0449983 0.720573 -0.284999)
(-0.0149994 0.720573 -0.284998)
(0.0149994 0.720573 -0.284998)
(0.0449983 0.720573 -0.284999)
(0.0749973 0.720574 -0.284999)
(0.104997 0.720575 -0.284999)
(0.134996 0.720576 -0.284999)
(0.164996 0.720577 -0.284999)
(0.194997 0.720579 -0.284999)
(0.224997 0.72058 -0.284999)
(0.254998 0.720581 -0.284999)
(0.284999 0.720581 -0.284999)
(-0.285 0.749995 -0.285)
(-0.254999 0.749995 -0.284999)
(-0.224998 0.749994 -0.284999)
(-0.194998 0.749993 -0.285)
(-0.164997 0.749992 -0.284999)
(-0.134997 0.749991 -0.284999)
(-0.104998 0.749991 -0.284999)
(-0.0749983 0.74999 -0.284999)
(-0.0449989 0.749989 -0.284999)
(-0.0149996 0.749989 -0.284999)
(0.0149996 0.749989 -0.284999)
(0.0449989 0.749989 -0.284999)
(0.0749983 0.74999 -0.284999)
(0.104998 0.749991 -0.284999)
(0.134997 0.749991 -0.284999)
(0.164997 0.749992 -0.284999)
(0.194998 0.749993 -0.285)
(0.224998 0.749994 -0.284999)
(0.254999 0.749995 -0.284999)
(0.285 0.749995 -0.285)
(-0.285 0.779408 -0.285)
(-0.254999 0.779408 -0.285)
(-0.224999 0.779408 -0.285)
(-0.194998 0.779407 -0.285)
(-0.164998 0.779406 -0.285)
(-0.134998 0.779406 -0.284999)
(-0.104999 0.779406 -0.284999)
(-0.0749989 0.779405 -0.284999)
(-0.0449993 0.779405 -0.284999)
(-0.0149997 0.779405 -0.285)
(0.0149998 0.779405 -0.284999)
(0.0449993 0.779405 -0.284999)
(0.0749989 0.779405 -0.284999)
(0.104999 0.779406 -0.284999)
(0.134998 0.779406 -0.284999)
(0.164998 0.779407 -0.284999)
(0.194998 0.779407 -0.285)
(0.224999 0.779408 -0.285)
(0.254999 0.779408 -0.285)
(0.285 0.779408 -0.285)
(-0.285 0.808821 -0.285)
(-0.255 0.808821 -0.285)
(-0.224999 0.808821 -0.285)
(-0.194999 0.80882 -0.285)
(-0.164999 0.80882 -0.285)
(-0.134999 0.80882 -0.285)
(-0.104999 0.808819 -0.285)
(-0.0749993 0.808819 -0.285)
(-0.0449996 0.808819 -0.285)
(-0.0149998 0.808819 -0.285)
(0.0149999 0.808819 -0.285)
(0.0449996 0.808819 -0.285)
(0.0749993 0.808819 -0.285)
(0.104999 0.808819 -0.285)
(0.134999 0.80882 -0.285)
(0.164999 0.80882 -0.285)
(0.194999 0.80882 -0.285)
(0.224999 0.808821 -0.285)
(0.255 0.808821 -0.285)
(0.285 0.808821 -0.285)
(-0.285 0.838233 -0.285)
(-0.255 0.838233 -0.285)
(-0.225 0.838233 -0.285)
(-0.195 0.838233 -0.285)
(-0.164999 0.838233 -0.285)
(-0.134999 0.838233 -0.285)
(-0.105 0.838233 -0.285)
(-0.0749996 0.838233 -0.285)
(-0.0449997 0.838232 -0.285)
(-0.0149999 0.838232 -0.285)
(0.0149999 0.838232 -0.285)
(0.0449997 0.838232 -0.285)
(0.0749996 0.838233 -0.285)
(0.105 0.838233 -0.285)
(0.134999 0.838233 -0.285)
(0.164999 0.838233 -0.285)
(0.195 0.838233 -0.285)
(0.225 0.838233 -0.285)
(0.255 0.838233 -0.285)
(0.285 0.838233 -0.285)
(-0.285 0.867646 -0.285)
(-0.255 0.867646 -0.285)
(-0.225 0.867646 -0.285)
(-0.195 0.867646 -0.285)
(-0.165 0.867645 -0.285)
(-0.135 0.867645 -0.285)
(-0.105 0.867645 -0.285)
(-0.0749998 0.867645 -0.285)
(-0.0449998 0.867645 -0.285)
(-0.0149999 0.867645 -0.285)
(0.015 0.867645 -0.285)
(0.0449998 0.867645 -0.285)
(0.0749998 0.867645 -0.285)
(0.105 0.867645 -0.285)
(0.135 0.867645 -0.285)
(0.165 0.867645 -0.285)
(0.195 0.867646 -0.285)
(0.225 0.867646 -0.285)
(0.255 0.867646 -0.285)
(0.285 0.867646 -0.285)
(-0.285 0.897058 -0.285)
(-0.255 0.897058 -0.285)
(-0.225 0.897058 -0.285)
(-0.195 0.897058 -0.285)
(-0.165 0.897058 -0.285)
(-0.135 0.897058 -0.285)
(-0.105 0.897058 -0.285)
(-0.0749998 0.897058 -0.285)
(-0.0449999 0.897058 -0.285)
(-0.015 0.897058 -0.285)
(0.015 0.897058 -0.285)
(0.0449999 0.897058 -0.285)
(0.0749998 0.897058 -0.285)
(0.105 0.897058 -0.285)
(0.135 0.897058 -0.285)
(0.165 0.897058 -0.285)
(0.195 0.897058 -0.285)
(0.225 0.897058 -0.285)
(0.255 0.897058 -0.285)
(0.285 0.897058 -0.285)
(-0.285 0.92647 -0.285)
(-0.255 0.92647 -0.285)
(-0.225 0.92647 -0.285)
(-0.195 0.92647 -0.285)
(-0.165 0.92647 -0.285)
(-0.135 0.92647 -0.285)
(-0.105 0.92647 -0.285)
(-0.0749999 0.92647 -0.285)
(-0.0449999 0.92647 -0.285)
(-0.015 0.92647 -0.285)
(0.015 0.92647 -0.285)
(0.0449999 0.92647 -0.285)
(0.0749999 0.92647 -0.285)
(0.105 0.92647 -0.285)
(0.135 0.92647 -0.285)
(0.165 0.92647 -0.285)
(0.195 0.92647 -0.285)
(0.225 0.92647 -0.285)
(0.255 0.92647 -0.285)
(0.285 0.92647 -0.285)
(-0.285 0.955882 -0.285)
(-0.255 0.955882 -0.285)
(-0.225 0.955882 -0.285)
(-0.195 0.955882 -0.285)
(-0.165 0.955882 -0.285)
(-0.135 0.955882 -0.285)
(-0.105 0.955882 -0.285)
(-0.0749999 0.955882 -0.285)
(-0.045 0.955882 -0.285)
(-0.015 0.955882 -0.285)
(0.015 0.955882 -0.285)
(0.045 0.955882 -0.285)
(0.0749999 0.955882 -0.285)
(0.105 0.955882 -0.285)
(0.135 0.955882 -0.285)
(0.165 0.955882 -0.285)
(0.195 0.955882 -0.285)
(0.225 0.955882 -0.285)
(0.255 0.955882 -0.285)
(0.285 0.955882 -0.285)
(-0.285 0.985294 -0.285)
(-0.255 0.985294 -0.285)
(-0.225 0.985294 -0.285)
(-0.195 0.985294 -0.285)
(-0.165 0.985294 -0.285)
(-0.135 0.985294 -0.285)
(-0.105 0.985294 -0.285)
(-0.075 0.985294 -0.285)
(-0.045 0.985294 -0.285)
(-0.015 0.985294 -0.285)
(0.015 0.985294 -0.285)
(0.045 0.985294 -0.285)
(0.075 0.985294 -0.285)
(0.105 0.985294 -0.285)
(0.135 0.985294 -0.285)
(0.165 0.985294 -0.285)
(0.195 0.985294 -0.285)
(0.225 0.985294 -0.285)
(0.255 0.985294 -0.285)
(0.285 0.985294 -0.285)
(-0.284996 0.0147096 -0.25499)
(-0.254989 0.0147102 -0.254989)
(-0.224983 0.0147111 -0.254987)
(-0.194978 0.0147124 -0.254984)
(-0.164975 0.0147139 -0.25498)
(-0.134975 0.0147157 -0.254976)
(-0.104977 0.0147174 -0.254973)
(-0.0749813 0.0147189 -0.25497)
(-0.0449879 0.0147201 -0.254967)
(-0.0149957 0.0147207 -0.254966)
(0.0149957 0.0147207 -0.254966)
(0.0449879 0.0147201 -0.254967)
(0.0749813 0.0147189 -0.25497)
(0.104977 0.0147174 -0.254973)
(0.134975 0.0147157 -0.254976)
(0.164975 0.0147139 -0.25498)
(0.194978 0.0147124 -0.254984)
(0.224983 0.0147111 -0.254987)
(0.254989 0.0147102 -0.254989)
(0.284996 0.0147096 -0.25499)
(-0.284996 0.0441283 -0.254989)
(-0.254987 0.0441299 -0.254987)
(-0.22498 0.0441328 -0.254985)
(-0.194975 0.0441363 -0.254981)
(-0.164971 0.044141 -0.254977)
(-0.134971 0.0441459 -0.254972)
(-0.104973 0.0441509 -0.254967)
(-0.0749781 0.0441553 -0.254963)
(-0.0449858 0.0441588 -0.25496)
(-0.014995 0.0441607 -0.254958)
(0.014995 0.0441607 -0.254958)
(0.0449858 0.0441588 -0.25496)
(0.0749781 0.0441553 -0.254963)
(0.104973 0.0441509 -0.254967)
(0.134971 0.0441459 -0.254972)
(0.164971 0.044141 -0.254977)
(0.194975 0.0441363 -0.254981)
(0.22498 0.0441328 -0.254985)
(0.254987 0.0441299 -0.254987)
(0.284996 0.0441283 -0.254989)
(-0.284995 0.073546 -0.254986)
(-0.254984 0.0735485 -0.254984)
(-0.224976 0.0735529 -0.254981)
(-0.194969 0.0735589 -0.254976)
(-0.164965 0.0735659 -0.25497)
(-0.134964 0.0735739 -0.254964)
(-0.104966 0.0735819 -0.254957)
(-0.0749726 0.0735892 -0.254952)
(-0.044982 0.0735947 -0.254947)
(-0.0149937 0.0735977 -0.254944)
(0.0149937 0.0735977 -0.254944)
(0.044982 0.0735947 -0.254947)
(0.0749726 0.0735892 -0.254952)
(0.104966 0.0735819 -0.254957)
(0.134964 0.0735739 -0.254964)
(0.164965 0.0735659 -0.25497)
(0.194969 0.0735589 -0.254976)
(0.224976 0.0735529 -0.254981)
(0.254984 0.0735485 -0.254984)
(0.284995 0.073546 -0.254986)
(-0.284993 0.102962 -0.254983)
(-0.254981 0.102965 -0.254981)
(-0.22497 0.102971 -0.254976)
(-0.194961 0.102979 -0.25497)
(-0.164955 0.102988 -0.254962)
(-0.134954 0.102999 -0.254953)
(-0.104957 0.10301 -0.254944)
(-0.0749649 0.103019 -0.254936)
(-0.0449768 0.103027 -0.254929)
(-0.014992 0.103031 -0.254926)
(0.014992 0.103031 -0.254926)
(0.0449768 0.103027 -0.254929)
(0.0749649 0.103019 -0.254936)
(0.104957 0.10301 -0.254944)
(0.134954 0.102999 -0.254953)
(0.164955 0.102988 -0.254962)
(0.194961 0.102979 -0.25497)
(0.22497 0.102971 -0.254976)
(0.254981 0.102965 -0.254981)
(0.284993 0.102962 -0.254983)
(-0.284992 0.132376 -0.254979)
(-0.254976 0.13238 -0.254976)
(-0.224962 0.132386 -0.25497)
(-0.194951 0.132395 -0.254961)
(-0.164944 0.132407 -0.254951)
(-0.134942 0.132419 -0.254939)
(-0.104945 0.132432 -0.254927)
(-0.074955 0.132444 -0.254915)
(-0.0449704 0.132453 -0.254906)
(-0.0149897 0.132459 -0.254901)
(0.0149896 0.132459 -0.254901)
(0.0449703 0.132453 -0.254906)
(0.074955 0.132444 -0.254915)
(0.104945 0.132432 -0.254927)
(0.134942 0.132419 -0.254939)
(0.164944 0.132407 -0.254951)
(0.194951 0.132395 -0.254961)
(0.224962 0.132386 -0.25497)
(0.254976 0.13238 -0.254976)
(0.284992 0.132376 -0.254979)
(-0.28499 0.161787 -0.254975)
(-0.25497 0.161791 -0.25497)
(-0.224953 0.161798 -0.254962)
(-0.19494 0.161808 -0.254952)
(-0.164931 0.16182 -0.254938)
(-0.134927 0.161833 -0.254922)
(-0.104932 0.161848 -0.254906)
(-0.0749436 0.161861 -0.254891)
(-0.0449627 0.161871 -0.25488)
(-0.014987 0.161877 -0.254873)
(0.014987 0.161877 -0.254873)
(0.0449627 0.161871 -0.25488)
(0.0749436 0.161861 -0.254891)
(0.104932 0.161848 -0.254906)
(0.134927 0.161833 -0.254922)
(0.164931 0.16182 -0.254938)
(0.19494 0.161808 -0.254952)
(0.224953 0.161798 -0.254962)
(0.25497 0.161791 -0.25497)
(0.28499 0.161787 -0.254975)
(-0.284988 0.191196 -0.25497)
(-0.254965 0.1912 -0.254965)
(-0.224944 0.191206 -0.254955)
(-0.194928 0.191215 -0.254941)
(-0.164917 0.191227 -0.254925)
(-0.134913 0.19124 -0.254905)
(-0.104917 0.191254 -0.254885)
(-0.0749312 0.191267 -0.254866)
(-0.0449543 0.191278 -0.254851)
(-0.014984 0.191284 -0.254843)
(0.014984 0.191284 -0.254843)
(0.0449543 0.191278 -0.254851)
(0.0749312 0.191267 -0.254866)
(0.104917 0.191254 -0.254885)
(0.134913 0.19124 -0.254905)
(0.164917 0.191227 -0.254925)
(0.194928 0.191215 -0.254941)
(0.224944 0.191206 -0.254955)
(0.254965 0.1912 -0.254965)
(0.284988 0.191196 -0.25497)
(-0.284986 0.220601 -0.254966)
(-0.254959 0.220604 -0.254959)
(-0.224936 0.220609 -0.254948)
(-0.194916 0.220617 -0.254932)
(-0.164903 0.220626 -0.254911)
(-0.134898 0.220637 -0.254888)
(-0.104903 0.22065 -0.254864)
(-0.0749188 0.220661 -0.254841)
(-0.044946 0.220671 -0.254824)
(-0.0149809 0.220676 -0.254815)
(0.0149809 0.220676 -0.254815)
(0.044946 0.220671 -0.254824)
(0.0749188 0.220661 -0.254841)
(0.104903 0.22065 -0.254864)
(0.134898 0.220637 -0.254888)
(0.164903 0.220626 -0.254911)
(0.194916 0.220617 -0.254932)
(0.224936 0.220609 -0.254948)
(0.254959 0.220604 -0.254959)
(0.284986 0.220601 -0.254966)
(-0.284984 0.250004 -0.254962)
(-0.254955 0.250006 -0.254955)
(-0.224928 0.250009 -0.254941)
(-0.194906 0.250014 -0.254923)
(-0.164891 0.250019 -0.2549)
(-0.134884 0.250027 -0.254873)
(-0.10489 0.250035 -0.254845)
(-0.0749077 0.250043 -0.25482)
(-0.0449382 0.25005 -0.254801)
(-0.0149782 0.250054 -0.254791)
(0.0149782 0.250054 -0.254791)
(0.0449382 0.25005 -0.254801)
(0.0749076 0.250043 -0.25482)
(0.104889 0.250035 -0.254845)
(0.134884 0.250027 -0.254873)
(0.164891 0.250019 -0.2549)
(0.194906 0.250014 -0.254923)
(0.224928 0.250009 -0.254941)
(0.254955 0.250006 -0.254955)
(0.284984 0.250004 -0.254962)
(-0.284983 0.279406 -0.25496)
(-0.254951 0.279406 -0.254951)
(-0.224923 0.279406 -0.254937)
(-0.194899 0.279407 -0.254916)
(-0.164882 0.279408 -0.254891)
(-0.134874 0.27941 -0.254862)
(-0.104879 0.279412 -0.254831)
(-0.0748988 0.279415 -0.254804)
(-0.0449323 0.279418 -0.254785)
(-0.0149762 0.27942 -0.254775)
(0.0149762 0.27942 -0.254775)
(0.0449323 0.279418 -0.254785)
(0.0748988 0.279415 -0.254804)
(0.104879 0.279412 -0.254831)
(0.134874 0.27941 -0.254862)
(0.164882 0.279408 -0.254891)
(0.194899 0.279407 -0.254916)
(0.224923 0.279406 -0.254937)
(0.254951 0.279406 -0.254951)
(0.284983 0.279406 -0.25496)
(-0.284983 0.308807 -0.254958)
(-0.25495 0.308805 -0.25495)
(-0.22492 0.308802 -0.254934)
(-0.194895 0.308798 -0.254913)
(-0.164877 0.308794 -0.254887)
(-0.134869 0.308789 -0.254856)
(-0.104874 0.308786 -0.254825)
(-0.074894 0.308783 -0.254796)
(-0.0449289 0.308781 -0.254776)
(-0.0149749 0.30878 -0.254766)
(0.0149749 0.30878 -0.254766)
(0.0449289 0.308781 -0.254776)
(0.074894 0.308783 -0.254796)
(0.104874 0.308786 -0.254825)
(0.134869 0.308789 -0.254856)
(0.164877 0.308794 -0.254887)
(0.194895 0.308798 -0.254913)
(0.22492 0.308802 -0.254934)
(0.25495 0.308805 -0.25495)
(0.284983 0.308807 -0.254958)
(-0.284983 0.338208 -0.254959)
(-0.25495 0.338205 -0.25495)
(-0.22492 0.338199 -0.254935)
(-0.194896 0.338191 -0.254914)
(-0.164878 0.338181 -0.254887)
(-0.13487 0.338171 -0.254857)
(-0.104874 0.338161 -0.254826)
(-0.0748941 0.338152 -0.254798)
(-0.0449289 0.338146 -0.254777)
(-0.014975 0.338143 -0.254767)
(0.014975 0.338143 -0.254767)
(0.0449289 0.338146 -0.254777)
(0.0748941 0.338152 -0.254798)
(0.104874 0.338161 -0.254826)
(0.13487 0.338171 -0.254857)
(0.164878 0.338181 -0.254887)
(0.194896 0.338191 -0.254914)
(0.22492 0.338199 -0.254935)
(0.25495 0.338205 -0.25495)
(0.284983 0.338208 -0.254959)
(-0.284983 0.367611 -0.25496)
(-0.254952 0.367606 -0.254952)
(-0.224924 0.367598 -0.254938)
(-0.194901 0.367587 -0.254919)
(-0.164884 0.367573 -0.254894)
(-0.134876 0.367558 -0.254866)
(-0.104881 0.367544 -0.254837)
(-0.0748997 0.367531 -0.25481)
(-0.0449327 0.367522 -0.254791)
(-0.0149764 0.367517 -0.25478)
(0.0149764 0.367517 -0.25478)
(0.0449327 0.367522 -0.254791)
(0.0748997 0.367531 -0.25481)
(0.104881 0.367544 -0.254837)
(0.134876 0.367558 -0.254866)
(0.164884 0.367573 -0.254894)
(0.194901 0.367587 -0.254919)
(0.224924 0.367598 -0.254938)
(0.254952 0.367606 -0.254952)
(0.284983 0.367611 -0.25496)
(-0.284985 0.397017 -0.254964)
(-0.254956 0.397011 -0.254956)
(-0.224931 0.397002 -0.254944)
(-0.19491 0.396988 -0.254927)
(-0.164895 0.396973 -0.254905)
(-0.134888 0.396955 -0.25488)
(-0.104893 0.396938 -0.254855)
(-0.0749099 0.396923 -0.254832)
(-0.0449398 0.396912 -0.254815)
(-0.0149789 0.396907 -0.254806)
(0.0149789 0.396907 -0.254806)
(0.0449398 0.396912 -0.254815)
(0.0749099 0.396923 -0.254832)
(0.104893 0.396938 -0.254855)
(0.134888 0.396955 -0.25488)
(0.164895 0.396973 -0.254905)
(0.19491 0.396988 -0.254927)
(0.224931 0.397002 -0.254944)
(0.254956 0.397011 -0.254956)
(0.284985 0.397017 -0.254964)
(-0.284987 0.426426 -0.254968)
(-0.254962 0.42642 -0.254962)
(-0.22494 0.42641 -0.254951)
(-0.194922 0.426396 -0.254937)
(-0.164909 0.426379 -0.254919)
(-0.134903 0.426361 -0.254899)
(-0.104908 0.426344 -0.254878)
(-0.0749231 0.426329 -0.254859)
(-0.0449488 0.426317 -0.254845)
(-0.0149819 0.426311 -0.254838)
(0.0149819 0.426311 -0.254838)
(0.0449488 0.426317 -0.254845)
(0.074923 0.426329 -0.254859)
(0.104908 0.426344 -0.254878)
(0.134903 0.426362 -0.254899)
(0.164909 0.426379 -0.254919)
(0.194922 0.426396 -0.254937)
(0.22494 0.42641 -0.254951)
(0.254962 0.42642 -0.254962)
(0.284987 0.426426 -0.254968)
(-0.284989 0.455837 -0.254973)
(-0.254968 0.455831 -0.254968)