/*--------------------------------*- C++ -*----------------------------------*\
  =========                 |
  \\      /  F ield         | OpenFOAM: The Open Source CFD Toolbox
   \\    /   O peration     | Website:  https://openfoam.org
    \\  /    A nd           | Version:  13
     \\/     M anipulation  |
\*---------------------------------------------------------------------------*/
FoamFile
{
    format      ascii;
    class       volScalarField;
    location    "0";
    object      Ccx;
}
// * * * * * * * * * * * * * * * * * * * * * * * * * * * * * * * * * * * * * //

dimensions      [0 1 0 0 0 0 0];

internalField   nonuniform List<scalar> 
21800
(
-0.284997
-0.25499
-0.224985
-0.194981
-0.164978
-0.134978
-0.10498
-0.0749837
-0.0449894
-0.0149964
0.0149964
0.0449894
0.0749837
0.10498
0.134978
0.164978
0.194981
0.224985
0.25499
0.284997
-0.284996
-0.254989
-0.224982
-0.194978
-0.164975
-0.134975
-0.104977
-0.0749812
-0.0449877
-0.0149958
0.0149958
0.0449877
0.0749812
0.104977
0.134975
0.164975
0.194978
0.224982
0.254989
0.284996
-0.284995
-0.254986
-0.224979
-0.194973
-0.16497
-0.134969
-0.104972
-0.0749768
-0.0449849
-0.0149947
0.0149947
0.0449849
0.0749768
0.104972
0.134969
0.16497
0.194973
0.224979
0.254986
0.284995
-0.284994
-0.254983
-0.224974
-0.194967
-0.164962
-0.134961
-0.104964
-0.0749708
-0.0449809
-0.0149934
0.0149934
0.0449808
0.0749708
0.104964
0.134961
0.164962
0.194967
0.224974
0.254983
0.284994
-0.284993
-0.254979
-0.224968
-0.194959
-0.164953
-0.134951
-0.104955
-0.0749632
-0.044976
-0.0149915
0.0149915
0.0449759
0.0749632
0.104955
0.134951
0.164953
0.194959
0.224968
0.254979
0.284993
-0.284991
-0.254975
-0.224961
-0.19495
-0.164943
-0.13494
-0.104944
-0.0749546
-0.0449701
-0.0149896
0.0149896
0.0449701
0.0749546
0.104944
0.13494
0.164943
0.19495
0.224961
0.254975
0.284991
-0.28499
-0.25497
-0.224953
-0.19494
-0.164932
-0.134929
-0.104933
-0.0749454
-0.044964
-0.0149874
0.0149874
0.044964
0.0749454
0.104933
0.134929
0.164932
0.19494
0.224953
0.25497
0.28499
-0.284988
-0.254966
-0.224946
-0.194931
-0.164921
-0.134918
-0.104923
-0.0749363
-0.0449579
-0.0149853
0.0149853
0.0449579
0.0749363
0.104923
0.134918
0.164921
0.194931
0.224946
0.254966
0.284988
-0.284987
-0.254962
-0.224941
-0.194923
-0.164912
-0.134908
-0.104913
-0.0749283
-0.0449525
-0.0149834
0.0149833
0.0449525
0.0749283
0.104913
0.134908
0.164912
0.194923
0.224941
0.254962
0.284987
-0.284986
-0.25496
-0.224936
-0.194918
-0.164905
-0.134901
-0.104906
-0.0749221
-0.0449484
-0.014982
0.014982
0.0449484
0.0749221
0.104906
0.134901
0.164905
0.194918
0.224936
0.25496
0.284986
-0.284986
-0.254958
-0.224935
-0.194915
-0.164902
-0.134897
-0.104902
-0.074919
-0.0449462
-0.0149812
0.0149812
0.0449462
0.074919
0.104902
0.134897
0.164902
0.194915
0.224935
0.254958
0.284986
-0.284986
-0.254959
-0.224935
-0.194916
-0.164902
-0.134898
-0.104903
-0.0749193
-0.0449464
-0.0149812
0.0149811
0.0449464
0.0749193
0.104903
0.134898
0.164902
0.194916
0.224935
0.254959
0.284986
-0.284986
-0.25496
-0.224938
-0.194919
-0.164907
-0.134902
-0.104907
-0.0749232
-0.0449489
-0.0149822
0.0149822
0.044949
0.0749232
0.104907
0.134903
0.164907
0.194919
0.224938
0.25496
0.284986
-0.284987
-0.254964
-0.224943
-0.194926
-0.164915
-0.134911
-0.104916
-0.0749303
-0.0449539
-0.0149838
0.0149838
0.0449539
0.0749303
0.104916
0.134911
0.164915
0.194926
0.224943
0.254964
0.284987
-0.284989
-0.254968
-0.22495
-0.194935
-0.164926
-0.134922
-0.104927
-0.0749396
-0.0449601
-0.014986
0.014986
0.0449602
0.0749397
0.104927
0.134922
0.164926
0.194935
0.22495
0.254968
0.284989
-0.284991
-0.254973
-0.224957
-0.194945
-0.164937
-0.134935
-0.104939
-0.0749497
-0.0449668
-0.0149884
0.0149885
0.0449669
0.0749497
0.104939
0.134935
0.164937
0.194945
0.224957
0.254973
0.284991
-0.284992
-0.254978
-0.224965
-0.194956
-0.164949
-0.134947
-0.104951
-0.0749597
-0.0449735
-0.0149907
0.0149908
0.0449735
0.0749597
0.104951
0.134947
0.164949
0.194956
0.224965
0.254978
0.284992
-0.284994
-0.254982
-0.224973
-0.194965
-0.16496
-0.134959
-0.104962
-0.0749687
-0.0449795
-0.0149929
0.0149929
0.0449795
0.0749687
0.104962
0.134959
0.16496
0.194965
0.224973
0.254982
0.284994
-0.284995
-0.254986
-0.224979
-0.194973
-0.164969
-0.134969
-0.104971
-0.0749764
-0.0449846
-0.0149946
0.0149946
0.0449846
0.0749764
0.104971
0.134969
0.16497
0.194973
0.224979
0.254986
0.284995
-0.284996
-0.25499
-0.224984
-0.19498
-0.164977
-0.134977
-0.104979
-0.0749827
-0.0449887
-0.0149961
0.0149961
0.0449887
0.0749827
0.104979
0.134977
0.164977
0.19498
0.224984
0.25499
0.284996
-0.284997
-0.254993
-0.224989
-0.194986
-0.164984
-0.134983
-0.104985
-0.0749875
-0.044992
-0.0149972
0.0149972
0.044992
0.0749875
0.104985
0.134983
0.164984
0.194986
0.224989
0.254993
0.284997
-0.284998
-0.254995
-0.224992
-0.19499
-0.164989
-0.134988
-0.104989
-0.0749914
-0.0449944
-0.014998
0.014998
0.0449944
0.0749914
0.104989
0.134988
0.164989
0.19499
0.224992
0.254995
0.284998
-0.284999
-0.254996
-0.224994
-0.194993
-0.164992
-0.134992
-0.104992
-0.074994
-0.0449961
-0.0149987
0.0149987
0.0449961
0.074994
0.104992
0.134992
0.164992
0.194993
0.224994
0.254996
0.284999
-0.284999
-0.254998
-0.224996
-0.194995
-0.164995
-0.134994
-0.104995
-0.074996
-0.0449973
-0.0149992
0.0149992
0.0449973
0.074996
0.104995
0.134994
0.164995
0.194995
0.224996
0.254998
0.284999
-0.284999
-0.254998
-0.224997
-0.194997
-0.164996
-0.134996
-0.104997
-0.0749973
-0.0449983
-0.0149994
0.0149994
0.0449983
0.0749973
0.104997
0.134996
0.164996
0.194997
0.224997
0.254998
0.284999
-0.285
-0.254999
-0.224998
-0.194998
-0.164997
-0.134997
-0.104998
-0.0749983
-0.0449989
-0.0149996
0.0149996
0.0449989
0.0749983
0.104998
0.134997
0.164997
0.194998
0.224998
0.254999
0.285
-0.285
-0.254999
-0.224999
-0.194998
-0.164998
-0.134998
-0.104999
-0.0749989
-0.0449993
-0.0149997
0.0149998
0.0449993
0.0749989
0.104999
0.134998
0.164998
0.194998
0.224999
0.254999
0.285
-0.285
-0.255
-0.224999
-0.194999
-0.164999
-0.134999
-0.104999
-0.0749993
-0.0449996
-0.0149998
0.0149999
0.0449996
0.0749993
0.104999
0.134999
0.164999
0.194999
0.224999
0.255
0.285
-0.285
-0.255
-0.225
-0.195
-0.164999
-0.134999
-0.105
-0.0749996
-0.0449997
-0.0149999
0.0149999
0.0449997
0.0749996
0.105
0.134999
0.164999
0.195
0.225
0.255
0.285
-0.285
-0.255
-0.225
-0.195
-0.165
-0.135
-0.105
-0.0749998
-0.0449998
-0.0149999
0.015
0.0449998
0.0749998
0.105
0.135
0.165
0.195
0.225
0.255
0.285
-0.285
-0.255
-0.225
-0.195
-0.165
-0.135
-0.105
-0.0749998
-0.0449999
-0.015
0.015
0.0449999
0.0749998
0.105
0.135
0.165
0.195
0.225
0.255
0.285
-0.285
-0.255
-0.225
-0.195
-0.165
-0.135
-0.105
-0.0749999
-0.0449999
-0.015
0.015
0.0449999
0.0749999
0.105
0.135
0.165
0.195
0.225
0.255
0.285
-0.285
-0.255
-0.225
-0.195
-0.165
-0.135
-0.105
-0.0749999
-0.045
-0.015
0.015
0.045
0.0749999
0.105
0.135
0.165
0.195
0.225
0.255
0.285
-0.285
-0.255
-0.225
-0.195
-0.165
-0.135
-0.105
-0.075
-0.045
-0.015
0.015
0.045
0.075
0.105
0.135
0.165
0.195
0.225
0.255
0.285
-0.284996
-0.254989
-0.224983
-0.194978
-0.164975
-0.134975
-0.104977
-0.0749813
-0.0449879
-0.0149957
0.0149957
0.0449879
0.0749813
0.104977
0.134975
0.164975
0.194978
0.224983
0.254989
0.284996
-0.284996
-0.254987
-0.22498
-0.194975
-0.164971
-0.134971
-0.104973
-0.0749781
-0.0449858
-0.014995
0.014995
0.0449858
0.0749781
0.104973
0.134971
0.164971
0.194975
0.22498
0.254987
0.284996
-0.284995
-0.254984
-0.224976
-0.194969
-0.164965
-0.134964
-0.104966
-0.0749726
-0.044982
-0.0149937
0.0149937
0.044982
0.0749726
0.104966
0.134964
0.164965
0.194969
0.224976
0.254984
0.284995
-0.284993
-0.254981
-0.22497
-0.194961
-0.164955
-0.134954
-0.104957
-0.0749649
-0.0449768
-0.014992
0.014992
0.0449768
0.0749649
0.104957
0.134954
0.164955
0.194961
0.22497
0.254981
0.284993
-0.284992
-0.254976
-0.224962
-0.194951
-0.164944
-0.134942
-0.104945
-0.074955
-0.0449704
-0.0149897
0.0149896
0.0449703
0.074955
0.104945
0.134942
0.164944
0.194951
0.224962
0.254976
0.284992
-0.28499
-0.25497
-0.224953
-0.19494
-0.164931
-0.134927
-0.104932
-0.0749436
-0.0449627
-0.014987
0.014987
0.0449627
0.0749436
0.104932
0.134927
0.164931
0.19494
0.224953
0.25497
0.28499
-0.284988
-0.254965
-0.224944
-0.194928
-0.164917
-0.134913
-0.104917
-0.0749312
-0.0449543
-0.014984
0.014984
0.0449543
0.0749312
0.104917
0.134913
0.164917
0.194928
0.224944
0.254965
0.284988
-0.284986
-0.254959
-0.224936
-0.194916
-0.164903
-0.134898
-0.104903
-0.0749188
-0.044946
-0.0149809
0.0149809
0.044946
0.0749188
0.104903
0.134898
0.164903
0.194916
0.224936
0.254959
0.284986
-0.284984
-0.254955
-0.224928
-0.194906
-0.164891
-0.134884
-0.10489
-0.0749077
-0.0449382
-0.0149782
0.0149782
0.0449382
0.0749076
0.104889
0.134884
0.164891
0.194906
0.224928
0.254955
0.284984
-0.284983
-0.254951
-0.224923
-0.194899
-0.164882
-0.134874
-0.104879
-0.0748988
-0.0449323
-0.0149762
0.0149762
0.0449323
0.0748988
0.104879
0.134874
0.164882
0.194899
0.224923
0.254951
0.284983
-0.284983
-0.25495
-0.22492
-0.194895
-0.164877
-0.134869
-0.104874
-0.074894
-0.0449289
-0.0149749
0.0149749
0.0449289
0.074894
0.104874
0.134869
0.164877
0.194895
0.22492
0.25495
0.284983
-0.284983
-0.25495
-0.22492
-0.194896
-0.164878
-0.13487
-0.104874
-0.0748941
-0.0449289
-0.014975
0.014975
0.0449289
0.0748941
0.104874
0.13487
0.164878
0.194896
0.22492
0.25495
0.284983
-0.284983
-0.254952
-0.224924
-0.194901
-0.164884
-0.134876
-0.104881
-0.0748997
-0.0449327
-0.0149764
0.0149764
0.0449327
0.0748997
0.104881
0.134876
0.164884
0.194901
0.224924
0.254952
0.284983
-0.284985
-0.254956
-0.224931
-0.19491
-0.164895
-0.134888
-0.104893
-0.0749099
-0.0449398
-0.0149789
0.0149789
0.0449398
0.0749099
0.104893
0.134888
0.164895
0.19491
0.224931
0.254956
0.284985
-0.284987
-0.254962
-0.22494
-0.194922
-0.164909
-0.134903
-0.104908
-0.0749231
-0.0449488
-0.0149819
0.0149819
0.0449488
0.074923
0.104908
0.134903
0.164909
0.194922
0.22494
0.254962
0.284987
-0.284989
-0.254968
-0.224949
-0.194934
-0.164924
-0.13492
-0.104924
-0.0749371
-0.0449582
-0.0149854
0.0149854
0.0449582
0.0749372
0.104924
0.13492
0.164924
0.194934
0.224949
0.254968
0.284989
-0.284991
-0.254974
-0.224959
-0.194947
-0.164939
-0.134936
-0.10494
-0.0749506
-0.0449673
-0.0149885
0.0149885
0.0449673
0.0749506
0.10494
0.134936
0.164939
0.194947
0.224959
0.254974
0.284991
-0.284993
-0.25498
-0.224968
-0.194959
-0.164953
-0.134951
-0.104954
-0.0749623
-0.0449751
-0.0149913
0.0149913
0.0449751
0.0749623
0.104954
0.134951
0.164953
0.194959
0.224968
0.25498
0.284993
-0.284995
-0.254984
-0.224976
-0.194969
-0.164964
-0.134963
-0.104966
-0.074972
-0.0449817
-0.0149936
0.0149936
0.0449817
0.074972
0.104966
0.134963
0.164964
0.194969
0.224976
0.254984
0.284995
-0.284996
-0.254989
-0.224982
-0.194977
-0.164974
-0.134973
-0.104975
-0.0749798
-0.0449868
-0.0149954
0.0149954
0.0449868
0.0749798
0.104975
0.134973
0.164974
0.194977
0.224982
0.254989
0.284996
-0.284997
-0.254992
-0.224987
-0.194984
-0.164982
-0.134981
-0.104982
-0.0749857
-0.0449907
-0.0149968
0.0149968
0.0449907
0.0749857
0.104982
0.134981
0.164982
0.194984
0.224987
0.254992
0.284997
-0.284998
-0.254994
-0.224991
-0.194989
-0.164987
-0.134987
-0.104988
-0.0749901
-0.0449936
-0.0149978
0.0149978
0.0449936
0.0749901
0.104988
0.134987
0.164987
0.194989
0.224991
0.254994
0.284998
-0.284999
-0.254996
-0.224994
-0.194992
-0.164991
-0.134991
-0.104992
-0.0749932
-0.0449957
-0.0149985
0.0149985
0.0449957
0.0749932
0.104992
0.134991
0.164991
0.194992
0.224994
0.254996
0.284999
-0.284999
-0.254997
-0.224996
-0.194995
-0.164994
-0.134994
-0.104994
-0.0749955
-0.0449971
-0.014999
0.014999
0.0449972
0.0749955
0.104994
0.134994
0.164994
0.194995
0.224996
0.254997
0.284999
-0.284999
-0.254998
-0.224997
-0.194996
-0.164996
-0.134996
-0.104996
-0.074997
-0.0449982
-0.0149993
0.0149993
0.0449982
0.074997
0.104996
0.134996
0.164996
0.194996
0.224997
0.254998
0.284999
-0.284999
-0.254999
-0.224998
-0.194998
-0.164997
-0.134997
-0.104998
-0.0749982
-0.0449987
-0.0149996
0.0149996
0.0449987
0.0749982
0.104998
0.134997
0.164997
0.194998
0.224998
0.254999
0.284999
-0.285
-0.254999
-0.224999
-0.194998
-0.164998
-0.134998
-0.104999
-0.0749987
-0.0449992
-0.0149997
0.0149997
0.0449992
0.0749987
0.104999
0.134998
0.164998
0.194998
0.224999
0.254999
0.285
-0.285
-0.255
-0.224999
-0.194999
-0.164999
-0.134999
-0.104999
-0.0749992
-0.0449996
-0.0149998
0.0149998
0.0449996
0.0749992
0.104999
0.134999
0.164999
0.194999
0.224999
0.255
0.285
-0.285
-0.255
-0.225
-0.195
-0.164999
-0.134999
-0.104999
-0.0749995
-0.0449998
-0.0149999
0.0149999
0.0449998
0.0749995
0.104999
0.134999
0.164999
0.195
0.225
0.255
0.285
-0.285
-0.255
-0.225
-0.195
-0.165
-0.135
-0.105
-0.0749998
-0.0449998
-0.0149999
0.0149999
0.0449998
0.0749998
0.105
0.135
0.165
0.195
0.225
0.255
0.285
-0.285
-0.255
-0.225
-0.195
-0.165
-0.135
-0.105
-0.0749998
-0.0449999
-0.0149999
0.015
0.0449999
0.0749998
0.105
0.135
0.165
0.195
0.225
0.255
0.285
-0.285
-0.255
-0.225
-0.195
-0.165
-0.135
-0.105
-0.0749999
-0.0449999
-0.015
0.015
0.0449999
0.0749999
0.105
0.135
0.165
0.195
0.225
0.255
0.285
-0.285
-0.255
-0.225
-0.195
-0.165
-0.135
-0.105
-0.0749999
-0.045
-0.015
0.015
0.045
0.0749999
0.105
0.135
0.165
0.195
0.225
0.255
0.285
-0.285
-0.255
-0.225
-0.195
-0.165
-0.135
-0.105
-0.075
-0.045
-0.015
0.015
0.045
0.075
0.105
0.135
0.165
0.195
0.225
0.255
0.285
-0.284995
-0.254987
-0.224979
-0.194974
-0.16497
-0.13497
-0.104972
-0.0749773
-0.0449852
-0.0149949
0.0149949
0.0449852
0.0749773
0.104972
0.13497
0.16497
0.194974
0.224979
0.254987
0.284995
-0.284995
-0.254985
-0.224976
-0.194969
-0.164965
-0.134964
-0.104967
-0.0749729
-0.0449822
-0.0149939
0.0149939
0.0449822
0.0749729
0.104967
0.134964
0.164965
0.194969
0.224976
0.254985
0.284995
-0.284993
-0.254981
-0.22497
-0.194962
-0.164956
-0.134955
-0.104958
-0.0749653
-0.0449772
-0.0149921
0.0149921
0.0449772
0.0749653
0.104958
0.134955
0.164956
0.194962
0.22497
0.254981
0.284993
-0.284992
-0.254976
-0.224962
-0.194951
-0.164944
-0.134941
-0.104945
-0.0749545
-0.04497
-0.0149894
0.0149894
0.04497
0.0749545
0.104945
0.134941
0.164944
0.194951
0.224962
0.254976
0.284992
-0.284989
-0.25497
-0.224952
-0.194938
-0.164928
-0.134925
-0.104929
-0.0749408
-0.0449606
-0.0149862
0.0149862
0.0449606
0.0749408
0.104929
0.134925
0.164928
0.194938
0.224952
0.25497
0.284989
-0.284987
-0.254962
-0.224941
-0.194923
-0.16491
-0.134905
-0.104909
-0.0749243
-0.0449495
-0.0149822
0.0149822
0.0449495
0.0749243
0.104909
0.134905
0.16491
0.194923
0.224941
0.254962
0.284987
-0.284984
-0.254955
-0.224928
-0.194907
-0.164891
-0.134884
-0.104888
-0.0749062
-0.0449369
-0.0149777
0.0149777
0.0449369
0.0749062
0.104888
0.134884
0.164891
0.194907
0.224928
0.254955
0.284984
-0.284982
-0.254948
-0.224917
-0.194891
-0.164871
-0.134862
-0.104867
-0.0748876
-0.0449243
-0.0149731
0.0149731
0.0449243
0.0748876
0.104867
0.134862
0.164871
0.194891
0.224917
0.254948
0.284982
-0.28498
-0.254941
-0.224907
-0.194877
-0.164854
-0.134843
-0.104848
-0.0748704
-0.0449124
-0.014969
0.014969
0.0449124
0.0748704
0.104847
0.134843
0.164854
0.194877
0.224907
0.254941
0.28498
-0.284978
-0.254937
-0.224899
-0.194866
-0.164841
-0.134828
-0.104832
-0.0748565
-0.0449027
-0.0149656
0.0149656
0.0449027
0.0748565
0.104832
0.134828
0.164841
0.194866
0.224899
0.254937
0.284978
-0.284977
-0.254934
-0.224895
-0.194861
-0.164834
-0.13482
-0.104823
-0.0748483
-0.0448969
-0.0149634
0.0149634
0.0448968
0.0748483
0.104823
0.13482
0.164834
0.194861
0.224895
0.254934
0.284977
-0.284978
-0.254935
-0.224896
-0.194862
-0.164835
-0.13482
-0.104823
-0.074848
-0.0448964
-0.0149633
0.0149633
0.0448964
0.074848
0.104823
0.13482
0.164835
0.194862
0.224896
0.254935
0.284978
-0.284979
-0.254938
-0.224901
-0.194869
-0.164844
-0.13483
-0.104832
-0.0748565
-0.0449025
-0.0149654
0.0149654
0.0449025
0.0748565
0.104833
0.13483
0.164844
0.194869
0.224901
0.254938
0.284979
-0.284981
-0.254944
-0.224911
-0.194882
-0.164859
-0.134848
-0.104851
-0.0748728
-0.044914
-0.0149696
0.0149696
0.044914
0.0748728
0.104851
0.134848
0.164859
0.194882
0.224911
0.254944
0.284981
-0.284983
-0.254951
-0.224923
-0.194898
-0.16488
-0.13487
-0.104874
-0.0748934
-0.0449284
-0.0149746
0.0149746
0.0449285
0.0748935
0.104874
0.13487
0.16488
0.194898
0.224923
0.254951
0.284983
-0.284986
-0.25496
-0.224936
-0.194916
-0.164901
-0.134895
-0.104899
-0.0749148
-0.0449432
-0.0149799
0.01498
0.0449432
0.0749149
0.104899
0.134895
0.164901
0.194916
0.224936
0.254959
0.284986
-0.284989
-0.254967
-0.224949
-0.194933
-0.164922
-0.134918
-0.104922
-0.0749346
-0.0449565
-0.0149848
0.0149848
0.0449565
0.0749346
0.104922
0.134918
0.164922
0.194933
0.224949
0.254967
0.284989
-0.284991
-0.254975
-0.22496
-0.194949
-0.16494
-0.134938
-0.104941
-0.0749512
-0.0449677
-0.0149887
0.0149887
0.0449677
0.0749512
0.104941
0.134938
0.16494
0.194949
0.22496
0.254975
0.284991
-0.284993
-0.254981
-0.22497
-0.194962
-0.164956
-0.134954
-0.104957
-0.0749646
-0.0449767
-0.0149919
0.0149919
0.0449767
0.0749646
0.104957
0.134954
0.164956
0.194962
0.22497
0.254981
0.284993
-0.284995
-0.254986
-0.224978
-0.194972
-0.164968
-0.134967
-0.104969
-0.074975
-0.0449835
-0.0149943
0.0149943
0.0449835
0.074975
0.104969
0.134967
0.164968
0.194972
0.224978
0.254986
0.284995
-0.284996
-0.25499
-0.224985
-0.19498
-0.164978
-0.134977
-0.104979
-0.0749825
-0.0449886
-0.0149961
0.0149961
0.0449886
0.0749825
0.104979
0.134977
0.164978
0.19498
0.224985
0.25499
0.284996
-0.284998
-0.254993
-0.224989
-0.194986
-0.164984
-0.134984
-0.104985
-0.0749881
-0.0449923
-0.0149973
0.0149974
0.0449923
0.0749881
0.104985
0.134984
0.164984
0.194986
0.224989
0.254993
0.284998
-0.284998
-0.254995
-0.224993
-0.194991
-0.164989
-0.134989
-0.10499
-0.074992
-0.0449949
-0.0149982
0.0149982
0.0449949
0.074992
0.10499
0.134989
0.164989
0.194991
0.224993
0.254995
0.284998
-0.284999
-0.254997
-0.224995
-0.194994
-0.164993
-0.134993
-0.104994
-0.0749948
-0.0449966
-0.0149988
0.0149988
0.0449966
0.0749948
0.104994
0.134993
0.164993
0.194994
0.224995
0.254997
0.284999
-0.284999
-0.254998
-0.224997
-0.194996
-0.164995
-0.134995
-0.104996
-0.0749966
-0.0449978
-0.0149992
0.0149992
0.0449978
0.0749966
0.104996
0.134995
0.164995
0.194996
0.224997
0.254998
0.284999
-0.284999
-0.254999
-0.224998
-0.194997
-0.164997
-0.134997
-0.104997
-0.0749978
-0.0449985
-0.0149996
0.0149996
0.0449985
0.0749978
0.104997
0.134997
0.164997
0.194997
0.224998
0.254999
0.284999
-0.285
-0.254999
-0.224999
-0.194999
-0.164998
-0.134998
-0.104998
-0.0749987
-0.0449991
-0.0149997
0.0149997
0.0449991
0.0749987
0.104998
0.134998
0.164998
0.194999
0.224999
0.254999
0.285
-0.285
-0.255
-0.224999
-0.194999
-0.164999
-0.134999
-0.104999
-0.0749992
-0.0449995
-0.0149998
0.0149998
0.0449995
0.0749992
0.104999
0.134999
0.164999
0.194999
0.224999
0.255
0.285
-0.285
-0.255
-0.225
-0.194999
-0.164999
-0.134999
-0.104999
-0.0749994
-0.0449997
-0.0149999
0.0149999
0.0449997
0.0749994
0.104999
0.134999
0.164999
0.194999
0.225
0.255
0.285
-0.285
-0.255
-0.225
-0.195
-0.165
-0.135
-0.105
-0.0749997
-0.0449998
-0.0149999
0.0149999
0.0449998
0.0749997
0.105
0.135
0.165
0.195
0.225
0.255
0.285
-0.285
-0.255
-0.225
-0.195
-0.165
-0.135
-0.105
-0.0749998
-0.0449999
-0.0149999
0.015
0.0449999
0.0749998
0.105
0.135
0.165
0.195
0.225
0.255
0.285
-0.285
-0.255
-0.225
-0.195
-0.165
-0.135
-0.105
-0.0749999
-0.0449999
-0.015
0.015
0.0449999
0.0749999
0.105
0.135
0.165
0.195
0.225
0.255
0.285
-0.285
-0.255
-0.225
-0.195
-0.165
-0.135
-0.105
-0.0749999
-0.045
-0.015
0.015
0.045
0.0749999
0.105
0.135
0.165
0.195
0.225
0.255
0.285
-0.285
-0.255
-0.225
-0.195
-0.165
-0.135
-0.105
-0.075
-0.045
-0.015
0.015
0.045
0.075
0.105
0.135
0.165
0.195
0.225
0.255
0.285
-0.284995
-0.254984
-0.224975
-0.194968
-0.164963
-0.134963
-0.104965
-0.0749717
-0.0449816
-0.0149936
0.0149936
0.0449816
0.0749717
0.104965
0.134963
0.164963
0.194968
0.224975
0.254984
0.284995
-0.284993
-0.254981
-0.22497
-0.194962
-0.164956
-0.134955
-0.104958
-0.0749657
-0.0449775
-0.0149921
0.0149921
0.0449775
0.0749657
0.104958
0.134955
0.164956
0.194962
0.22497
0.254981
0.284993
-0.284992
-0.254976
-0.224962
-0.194952
-0.164945
-0.134942
-0.104946
-0.0749552
-0.0449703
-0.0149896
0.0149896
0.0449703
0.0749552
0.104946
0.134942
0.164945
0.194952
0.224962
0.254976
0.284992
-0.284989
-0.25497
-0.224952
-0.194938
-0.164928
-0.134924
-0.104928
-0.0749399
-0.04496
-0.0149858
0.0149858
0.04496
0.0749399
0.104928
0.134924
0.164928
0.194938
0.224952
0.25497
0.284989
-0.284987
-0.254961
-0.224938
-0.19492
-0.164906
-0.1349
-0.104904
-0.0749199
-0.0449463
-0.014981
0.014981
0.0449463
0.0749199
0.104904
0.1349
0.164906
0.19492
0.224938
0.254961
0.284987
-0.284983
-0.254952
-0.224923
-0.194899
-0.164881
-0.134872
-0.104877
-0.0748955
-0.0449294
-0.014975
0.014975
0.0449293
0.0748955
0.104877
0.134872
0.164881
0.194899
0.224923
0.254952
0.284983
-0.28498
-0.254941
-0.224906
-0.194876
-0.164854
-0.134842
-0.104846
-0.0748683
-0.04491
-0.014968
0.014968
0.04491
0.0748683
0.104846
0.134842
0.164854
0.194876
0.224907
0.254941
0.28498
-0.284977
-0.254932
-0.22489
-0.194854
-0.164826
-0.134811
-0.104814
-0.0748401
-0.0448903
-0.0149607
0.0149607
0.0448904
0.07484
0.104814
0.134811
0.164826
0.194854
0.22489
0.254932
0.284977
-0.284974
-0.254923
-0.224876
-0.194835
-0.164801
-0.134782
-0.104784
-0.074813
-0.0448717
-0.014954
0.014954
0.0448717
0.074813
0.104784
0.134782
0.164801
0.194835
0.224876
0.254923
0.284974
-0.284971
-0.254916
-0.224865
-0.19482
-0.164782
-0.134759
-0.104759
-0.0747902
-0.0448558
-0.0149489
0.0149488
0.0448558
0.0747902
0.104759
0.134759
0.164782
0.19482
0.224865
0.254916
0.284971
-0.28497
-0.254913
-0.22486
-0.194812
-0.164771
-0.134746
-0.104744
-0.0747753
-0.0448449
-0.0149451
0.0149451
0.0448449
0.0747753
0.104744
0.134746
0.164771
0.194812
0.22486
0.254913
0.28497
-0.28497
-0.254914
-0.224861
-0.194813
-0.164772
-0.134745
-0.104742
-0.0747732
-0.044843
-0.014944
0.014944
0.044843
0.0747733
0.104742
0.134745
0.164772
0.194813
0.224861
0.254914
0.28497
-0.284972
-0.254918
-0.224869
-0.194823
-0.164784
-0.134759
-0.104757
-0.0747867
-0.0448528
-0.0149476
0.0149476
0.0448528
0.0747868
0.104757
0.134759
0.164784
0.194823
0.224869
0.254918
0.284972
-0.284975
-0.254927
-0.224882
-0.194841
-0.164808
-0.134787
-0.104786
-0.0748137
-0.0448726
-0.0149548
0.0149548
0.0448726
0.0748137
0.104786
0.134787
0.164808
0.194841
0.224882
0.254927
0.284975
-0.284978
-0.254937
-0.224899
-0.194865
-0.164837
-0.134822
-0.104823
-0.074848
-0.0448968
-0.0149635
0.0149635
0.0448968
0.074848
0.104823
0.134822
0.164837
0.194865
0.224899
0.254937
0.284978
-0.284982
-0.254948
-0.224917
-0.19489
-0.164869
-0.134858
-0.104861
-0.0748818
-0.0449203
-0.0149718
0.0149718
0.0449204
0.0748819
0.104861
0.134858
0.164869
0.19489
0.224917
0.254948
0.284982
-0.284986
-0.254959
-0.224934
-0.194914
-0.164898
-0.134891
-0.104895
-0.0749116
-0.0449407
-0.0149792
0.0149792
0.0449407
0.0749117
0.104895
0.134891
0.164898
0.194914
0.224934
0.254959
0.284986
-0.284989
-0.254968
-0.22495
-0.194935
-0.164924
-0.134919
-0.104923
-0.0749357
-0.0449572
-0.014985
0.014985
0.0449572
0.0749358
0.104923
0.134919
0.164924
0.194935
0.22495
0.254968
0.284989
-0.284992
-0.254977
-0.224963
-0.194952
-0.164944
-0.134942
-0.104945
-0.0749544
-0.0449698
-0.0149894
0.0149894
0.0449698
0.0749544
0.104945
0.134942
0.164944
0.194952
0.224963
0.254977
0.284992
-0.284994
-0.254983
-0.224973
-0.194965
-0.16496
-0.134959
-0.104961
-0.0749683
-0.0449791
-0.0149927
0.0149927
0.0449791
0.0749683
0.104961
0.134959
0.16496
0.194965
0.224973
0.254983
0.284994
-0.284996
-0.254988
-0.224981
-0.194976
-0.164973
-0.134971
-0.104974
-0.0749783
-0.0449858
-0.014995
0.014995
0.0449858
0.0749783
0.104974
0.134971
0.164973
0.194976
0.224981
0.254988
0.284996
-0.284997
-0.254992
-0.224987
-0.194984
-0.164981
-0.134981
-0.104982
-0.0749855
-0.0449905
-0.0149967
0.0149967
0.0449905
0.0749855
0.104982
0.134981
0.164981
0.194984
0.224987
0.254992
0.284997
-0.284998
-0.254995
-0.224991
-0.194989
-0.164987
-0.134987
-0.104988
-0.0749904
-0.0449938
-0.0149978
0.0149978
0.0449938
0.0749904
0.104988
0.134987
0.164987
0.194989
0.224991
0.254995
0.284998
-0.284999
-0.254996
-0.224994
-0.194993
-0.164992
-0.134992
-0.104992
-0.0749938
-0.044996
-0.0149986
0.0149986
0.044996
0.0749938
0.104992
0.134992
0.164992
0.194993
0.224994
0.254996
0.284999
-0.284999
-0.254998
-0.224996
-0.194995
-0.164994
-0.134995
-0.104995
-0.0749961
-0.0449974
-0.014999
0.014999
0.0449974
0.0749961
0.104995
0.134995
0.164994
0.194995
0.224996
0.254998
0.284999
-0.285
-0.254999
-0.224997
-0.194997
-0.164997
-0.134997
-0.104997
-0.0749975
-0.0449983
-0.0149995
0.0149995
0.0449983
0.0749975
0.104997
0.134997
0.164997
0.194997
0.224997
0.254999
0.285
-0.285
-0.254999
-0.224999
-0.194998
-0.164998
-0.134998
-0.104998
-0.0749985
-0.044999
-0.0149996
0.0149996
0.044999
0.0749985
0.104998
0.134998
0.164998
0.194998
0.224999
0.254999
0.285
-0.285
-0.254999
-0.224999
-0.194999
-0.164999
-0.134999
-0.104999
-0.0749989
-0.0449994
-0.0149998
0.0149998
0.0449994
0.0749989
0.104999
0.134999
0.164999
0.194999
0.224999
0.254999
0.285
-0.285
-0.255
-0.224999
-0.194999
-0.164999
-0.134999
-0.104999
-0.0749994
-0.0449996
-0.0149999
0.0149999
0.0449996
0.0749994
0.104999
0.134999
0.164999
0.194999
0.224999
0.255
0.285
-0.285
-0.255
-0.225
-0.195
-0.165
-0.134999
-0.105
-0.0749996
-0.0449998
-0.0149999
0.0149999
0.0449998
0.0749996
0.105
0.135
0.165
0.195
0.225
0.255
0.285
-0.285
-0.255
-0.225
-0.195
-0.165
-0.135
-0.105
-0.0749998
-0.0449999
-0.0149999
0.015
0.0449999
0.0749998
0.105
0.135
0.165
0.195
0.225
0.255
0.285
-0.285
-0.255
-0.225
-0.195
-0.165
-0.135
-0.105
-0.0749998
-0.0449999
-0.015
0.015
0.0449999
0.0749998
0.105
0.135
0.165
0.195
0.225
0.255
0.285
-0.285
-0.255
-0.225
-0.195
-0.165
-0.135
-0.105
-0.0749999
-0.045
-0.015
0.015
0.045
0.0749999
0.105
0.135
0.165
0.195
0.225
0.255
0.285
-0.285
-0.255
-0.225
-0.195
-0.165
-0.135
-0.105
-0.075
-0.045
-0.015
0.015
0.045
0.075
0.105
0.135
0.165
0.195
0.225
0.255
0.285
-0.284993
-0.25498
-0.224969
-0.194961
-0.164955
-0.134954
-0.104957
-0.074965
-0.044977
-0.014992
0.014992
0.044977
0.074965
0.104957
0.134954
0.164955
0.194961
0.224969
0.25498
0.284993
-0.284992
-0.254977
-0.224963
-0.194953
-0.164946
-0.134944
-0.104947
-0.0749566
-0.0449714
-0.01499
0.01499
0.0449714
0.0749566
0.104947
0.134944
0.164946
0.194953
0.224963
0.254977
0.284992
-0.28499
-0.25497
-0.224953
-0.19494
-0.16493
-0.134926
-0.10493
-0.0749421
-0.0449615
-0.0149865
0.0149865
0.0449615
0.0749421
0.10493
0.134926
0.16493
0.19494
0.224953
0.25497
0.28499
-0.284987
-0.254962
-0.224939
-0.194921
-0.164907
-0.134901
-0.104906
-0.0749208
-0.0449469
-0.0149813
0.0149813
0.0449469
0.0749208
0.104906
0.134901
0.164907
0.194921
0.224939
0.254962
0.284987
-0.284983
-0.254951
-0.224921
-0.194897
-0.164878
-0.134869
-0.104873
-0.074892
-0.0449268
-0.0149739
0.0149739
0.0449268
0.074892
0.104873
0.134869
0.164878
0.194897
0.224921
0.254951
0.284983
-0.284979
-0.254938
-0.224901
-0.194868
-0.164843
-0.13483
-0.104833
-0.074856
-0.0449011
-0.0149644
0.0149644
0.0449011
0.074856
0.104833
0.13483
0.164843
0.194868
0.224901
0.254938
0.284979
-0.284974
-0.254925
-0.224879
-0.194838
-0.164805
-0.134786
-0.104787
-0.0748148
-0.0448709
-0.0149529
0.0149529
0.0448709
0.0748148
0.104787
0.134786
0.164805
0.194838
0.224879
0.254925
0.284974
-0.28497
-0.254911
-0.224857
-0.194807
-0.164766
-0.13474
-0.104739
-0.0747723
-0.0448401
-0.0149417
0.0149416
0.0448401
0.0747723
0.104739
0.13474
0.164766
0.194807
0.224857
0.254911
0.28497
-0.284966
-0.2549
-0.224838
-0.19478
-0.164731
-0.134698
-0.104693
-0.0747284
-0.0448112
-0.0149307
0.0149306
0.0448112
0.0747283
0.104693
0.134698
0.164731
0.19478
0.224838
0.2549
0.284966
-0.284963
-0.254891
-0.224823
-0.194759
-0.164703
-0.134664
-0.104656
-0.0746907
-0.044786
-0.0149249
0.0149249
0.044786
0.0746907
0.104656
0.134664
0.164703
0.194759
0.224823
0.254891
0.284963
-0.284962
-0.254887
-0.224815
-0.194748
-0.164687
-0.134642
-0.10463
-0.0746621
-0.0447648
-0.0149192
0.0149192
0.0447648
0.0746621
0.10463
0.134642
0.164687
0.194748
0.224815
0.254887
0.284962
-0.284962
-0.254887
-0.224817
-0.194748
-0.164686
-0.134638
-0.104622
-0.0746538
-0.0447573
-0.014913
0.014913
0.0447574
0.0746538
0.104622
0.134638
0.164686
0.194748
0.224817
0.254887
0.284962
-0.284964
-0.254894
-0.224827
-0.194763
-0.164704
-0.134659
-0.104643
-0.0746781
-0.0447731
-0.0149209
0.0149209
0.0447731
0.0746781
0.104643
0.134659
0.164704
0.194763
0.224827
0.254894
0.284964
-0.284968
-0.254905
-0.224845
-0.194789
-0.164739
-0.134702
-0.104692
-0.0747244
-0.0448102
-0.0149323
0.0149324
0.0448102
0.0747244
0.104692
0.134702
0.164739
0.194789
0.224845
0.254905
0.284968
-0.284972
-0.254919
-0.224869
-0.194822
-0.164783
-0.134756
-0.104753
-0.0747827
-0.0448515
-0.0149473
0.0149473
0.0448514
0.0747828
0.104753
0.134756
0.164783
0.194822
0.224869
0.254919
0.284972
-0.284977
-0.254934
-0.224893
-0.194857
-0.164828
-0.13481
-0.104811
-0.0748369
-0.0448893
-0.0149607
0.0149607
0.0448893
0.074837
0.104811
0.13481
0.164828
0.194857
0.224893
0.254934
0.284977
-0.284982
-0.254948
-0.224917
-0.194889
-0.164869
-0.134858
-0.104861
-0.0748816
-0.0449201
-0.0149718
0.0149718
0.0449201
0.0748816
0.104861
0.134858
0.164869
0.194889
0.224917
0.254948
0.284982
-0.284986
-0.254961
-0.224937
-0.194917
-0.164903
-0.134896
-0.1049
-0.0749161
-0.0449439
-0.0149802
0.0149802
0.0449439
0.0749161
0.1049
0.134896
0.164903
0.194917
0.224937
0.254961
0.284986
-0.28499
-0.254971
-0.224954
-0.19494
-0.16493
-0.134927
-0.10493
-0.0749417
-0.0449613
-0.0149864
0.0149864
0.0449613
0.0749417
0.10493
0.134927
0.16493
0.19494
0.224954
0.254971
0.28499
-0.284993
-0.254979
-0.224967
-0.194958
-0.164951
-0.134949
-0.104952
-0.0749603
-0.0449736
-0.0149909
0.0149909
0.0449736
0.0749603
0.104952
0.134949
0.164951
0.194958
0.224967
0.254979
0.284993
-0.284995
-0.254985
-0.224977
-0.194971
-0.164967
-0.134965
-0.104967
-0.0749733
-0.0449824
-0.0149939
0.0149939
0.0449824
0.0749733
0.104967
0.134965
0.164967
0.194971
0.224977
0.254985
0.284995
-0.284997
-0.25499
-0.224985
-0.19498
-0.164977