/*--------------------------------*- C++ -*----------------------------------*\
  =========                 |
  \\      /  F ield         | OpenFOAM: The Open Source CFD Toolbox
   \\    /   O peration     | Website:  https://openfoam.org
    \\  /    A nd           | Version:  13
     \\/     M anipulation  |
\*---------------------------------------------------------------------------*/
FoamFile
{
    format      ascii;
    class       volScalarField;
    location    "0";
    object      Ccy;
}
// * * * * * * * * * * * * * * * * * * * * * * * * * * * * * * * * * * * * * //

dimensions      [0 1 0 0 0 0 0];

internalField   nonuniform List<scalar> 
21800
(
0.0147091
0.0147096
0.0147104
0.0147115
0.0147127
0.0147141
0.0147154
0.0147167
0.0147175
0.014718
0.014718
0.0147175
0.0147167
0.0147154
0.0147141
0.0147127
0.0147115
0.0147104
0.0147096
0.0147091
0.0441271
0.0441283
0.0441307
0.0441336
0.0441373
0.0441412
0.0441452
0.0441487
0.0441514
0.0441528
0.0441528
0.0441514
0.0441487
0.0441452
0.0441412
0.0441373
0.0441336
0.0441307
0.0441283
0.0441271
0.0735439
0.073546
0.0735495
0.0735543
0.07356
0.0735664
0.0735727
0.0735783
0.0735825
0.0735848
0.0735848
0.0735825
0.0735783
0.0735727
0.0735664
0.07356
0.0735543
0.0735495
0.073546
0.0735439
0.102959
0.102962
0.102967
0.102973
0.10298
0.102989
0.102997
0.103004
0.10301
0.103013
0.103013
0.10301
0.103004
0.102997
0.102989
0.10298
0.102973
0.102967
0.102962
0.102959
0.132373
0.132376
0.132381
0.132388
0.132397
0.132407
0.132416
0.132425
0.132432
0.132436
0.132436
0.132432
0.132425
0.132416
0.132407
0.132397
0.132388
0.132381
0.132376
0.132373
0.161784
0.161787
0.161792
0.1618
0.161809
0.16182
0.16183
0.16184
0.161847
0.161852
0.161852
0.161847
0.16184
0.16183
0.16182
0.161809
0.1618
0.161792
0.161787
0.161784
0.191193
0.191196
0.191201
0.191208
0.191216
0.191226
0.191236
0.191246
0.191253
0.191257
0.191257
0.191253
0.191246
0.191236
0.191226
0.191216
0.191208
0.191201
0.191196
0.191193
0.220599
0.220601
0.220605
0.220611
0.220618
0.220626
0.220634
0.220643
0.220649
0.220653
0.220653
0.220649
0.220643
0.220634
0.220626
0.220618
0.220611
0.220605
0.220601
0.220599
0.250003
0.250004
0.250007
0.25001
0.250014
0.250019
0.250025
0.25003
0.250035
0.250037
0.250037
0.250035
0.25003
0.250025
0.250019
0.250014
0.25001
0.250007
0.250004
0.250003
0.279406
0.279406
0.279406
0.279406
0.279407
0.279408
0.279409
0.279411
0.279413
0.279414
0.279414
0.279413
0.279411
0.279409
0.279408
0.279407
0.279406
0.279406
0.279406
0.279406
0.308808
0.308807
0.308804
0.308801
0.308798
0.308794
0.308791
0.308789
0.308787
0.308787
0.308787
0.308787
0.308789
0.308791
0.308794
0.308798
0.308801
0.308804
0.308807
0.308808
0.338211
0.338208
0.338204
0.338197
0.33819
0.338182
0.338175
0.338169
0.338164
0.338162
0.338162
0.338164
0.338169
0.338175
0.338182
0.33819
0.338197
0.338204
0.338208
0.338211
0.367615
0.367611
0.367605
0.367596
0.367586
0.367575
0.367564
0.367555
0.367548
0.367544
0.367544
0.367548
0.367555
0.367564
0.367575
0.367586
0.367596
0.367605
0.367611
0.367615
0.397022
0.397017
0.397009
0.396999
0.396987
0.396974
0.396961
0.39695
0.396942
0.396938
0.396938
0.396942
0.39695
0.396961
0.396974
0.396987
0.396999
0.397009
0.397017
0.397022
0.42643
0.426426
0.426418
0.426407
0.426394
0.42638
0.426367
0.426355
0.426347
0.426342
0.426342
0.426347
0.426355
0.426367
0.42638
0.426394
0.426407
0.426418
0.426426
0.42643
0.455842
0.455837
0.455829
0.455819
0.455807
0.455793
0.45578
0.455769
0.455761
0.455757
0.455757
0.455761
0.455769
0.45578
0.455793
0.455807
0.455819
0.455829
0.455837
0.455842
0.485256
0.485251
0.485244
0.485235
0.485223
0.485211
0.4852
0.48519
0.485182
0.485178
0.485178
0.485182
0.48519
0.4852
0.485211
0.485223
0.485235
0.485244
0.485251
0.485256
0.514671
0.514667
0.514661
0.514653
0.514643
0.514633
0.514623
0.514614
0.514608
0.514605
0.514605
0.514608
0.514614
0.514623
0.514633
0.514643
0.514653
0.514661
0.514667
0.514671
0.544087
0.544084
0.544079
0.544072
0.544064
0.544056
0.544047
0.54404
0.544035
0.544033
0.544033
0.544035
0.54404
0.544047
0.544056
0.544064
0.544072
0.544079
0.544084
0.544087
0.573503
0.573501
0.573497
0.573491
0.573485
0.573479
0.573472
0.573466
0.573462
0.57346
0.57346
0.573462
0.573466
0.573472
0.573479
0.573485
0.573492
0.573497
0.573501
0.573503
0.60292
0.602918
0.602915
0.602911
0.602906
0.602901
0.602896
0.602892
0.602888
0.602887
0.602887
0.602888
0.602892
0.602896
0.602901
0.602906
0.602911
0.602915
0.602918
0.60292
0.632336
0.632335
0.632332
0.632329
0.632326
0.632322
0.632318
0.632315
0.632313
0.632312
0.632312
0.632313
0.632315
0.632318
0.632322
0.632326
0.632329
0.632332
0.632335
0.632336
0.661752
0.661751
0.661749
0.661747
0.661744
0.661742
0.661739
0.661737
0.661735
0.661734
0.661734
0.661735
0.661737
0.661739
0.661742
0.661744
0.661747
0.661749
0.661751
0.661752
0.691166
0.691166
0.691165
0.691163
0.691162
0.691159
0.691158
0.691156
0.691155
0.691154
0.691154
0.691155
0.691156
0.691158
0.691159
0.691162
0.691163
0.691165
0.691166
0.691166
0.720581
0.720581
0.72058
0.720579
0.720577
0.720576
0.720575
0.720574
0.720573
0.720573
0.720573
0.720573
0.720574
0.720575
0.720576
0.720577
0.720579
0.72058
0.720581
0.720581
0.749995
0.749995
0.749994
0.749993
0.749992
0.749991
0.749991
0.74999
0.749989
0.749989
0.749989
0.749989
0.74999
0.749991
0.749991
0.749992
0.749993
0.749994
0.749995
0.749995
0.779408
0.779408
0.779408
0.779407
0.779406
0.779406
0.779406
0.779405
0.779405
0.779405
0.779405
0.779405
0.779405
0.779406
0.779406
0.779407
0.779407
0.779408
0.779408
0.779408
0.808821
0.808821
0.808821
0.80882
0.80882
0.80882
0.808819
0.808819
0.808819
0.808819
0.808819
0.808819
0.808819
0.808819
0.80882
0.80882
0.80882
0.808821
0.808821
0.808821
0.838233
0.838233
0.838233
0.838233
0.838233
0.838233
0.838233
0.838233
0.838232
0.838232
0.838232
0.838232
0.838233
0.838233
0.838233
0.838233
0.838233
0.838233
0.838233
0.838233
0.867646
0.867646
0.867646
0.867646
0.867645
0.867645
0.867645
0.867645
0.867645
0.867645
0.867645
0.867645
0.867645
0.867645
0.867645
0.867645
0.867646
0.867646
0.867646
0.867646
0.897058
0.897058
0.897058
0.897058
0.897058
0.897058
0.897058
0.897058
0.897058
0.897058
0.897058
0.897058
0.897058
0.897058
0.897058
0.897058
0.897058
0.897058
0.897058
0.897058
0.92647
0.92647
0.92647
0.92647
0.92647
0.92647
0.92647
0.92647
0.92647
0.92647
0.92647
0.92647
0.92647
0.92647
0.92647
0.92647
0.92647
0.92647
0.92647
0.92647
0.955882
0.955882
0.955882
0.955882
0.955882
0.955882
0.955882
0.955882
0.955882
0.955882
0.955882
0.955882
0.955882
0.955882
0.955882
0.955882
0.955882
0.955882
0.955882
0.955882
0.985294
0.985294
0.985294
0.985294
0.985294
0.985294
0.985294
0.985294
0.985294
0.985294
0.985294
0.985294
0.985294
0.985294
0.985294
0.985294
0.985294
0.985294
0.985294
0.985294
0.0147096
0.0147102
0.0147111
0.0147124
0.0147139
0.0147157
0.0147174
0.0147189
0.0147201
0.0147207
0.0147207
0.0147201
0.0147189
0.0147174
0.0147157
0.0147139
0.0147124
0.0147111
0.0147102
0.0147096
0.0441283
0.0441299
0.0441328
0.0441363
0.044141
0.0441459
0.0441509
0.0441553
0.0441588
0.0441607
0.0441607
0.0441588
0.0441553
0.0441509
0.0441459
0.044141
0.0441363
0.0441328
0.0441299
0.0441283
0.073546
0.0735485
0.0735529
0.0735589
0.0735659
0.0735739
0.0735819
0.0735892
0.0735947
0.0735977
0.0735977
0.0735947
0.0735892
0.0735819
0.0735739
0.0735659
0.0735589
0.0735529
0.0735485
0.073546
0.102962
0.102965
0.102971
0.102979
0.102988
0.102999
0.10301
0.103019
0.103027
0.103031
0.103031
0.103027
0.103019
0.10301
0.102999
0.102988
0.102979
0.102971
0.102965
0.102962
0.132376
0.13238
0.132386
0.132395
0.132407
0.132419
0.132432
0.132444
0.132453
0.132459
0.132459
0.132453
0.132444
0.132432
0.132419
0.132407
0.132395
0.132386
0.13238
0.132376
0.161787
0.161791
0.161798
0.161808
0.16182
0.161833
0.161848
0.161861
0.161871
0.161877
0.161877
0.161871
0.161861
0.161848
0.161833
0.16182
0.161808
0.161798
0.161791
0.161787
0.191196
0.1912
0.191206
0.191215
0.191227
0.19124
0.191254
0.191267
0.191278
0.191284
0.191284
0.191278
0.191267
0.191254
0.19124
0.191227
0.191215
0.191206
0.1912
0.191196
0.220601
0.220604
0.220609
0.220617
0.220626
0.220637
0.22065
0.220661
0.220671
0.220676
0.220676
0.220671
0.220661
0.22065
0.220637
0.220626
0.220617
0.220609
0.220604
0.220601
0.250004
0.250006
0.250009
0.250014
0.250019
0.250027
0.250035
0.250043
0.25005
0.250054
0.250054
0.25005
0.250043
0.250035
0.250027
0.250019
0.250014
0.250009
0.250006
0.250004
0.279406
0.279406
0.279406
0.279407
0.279408
0.27941
0.279412
0.279415
0.279418
0.27942
0.27942
0.279418
0.279415
0.279412
0.27941
0.279408
0.279407
0.279406
0.279406
0.279406
0.308807
0.308805
0.308802
0.308798
0.308794
0.308789
0.308786
0.308783
0.308781
0.30878
0.30878
0.308781
0.308783
0.308786
0.308789
0.308794
0.308798
0.308802
0.308805
0.308807
0.338208
0.338205
0.338199
0.338191
0.338181
0.338171
0.338161
0.338152
0.338146
0.338143
0.338143
0.338146
0.338152
0.338161
0.338171
0.338181
0.338191
0.338199
0.338205
0.338208
0.367611
0.367606
0.367598
0.367587
0.367573
0.367558
0.367544
0.367531
0.367522
0.367517
0.367517
0.367522
0.367531
0.367544
0.367558
0.367573
0.367587
0.367598
0.367606
0.367611
0.397017
0.397011
0.397002
0.396988
0.396973
0.396955
0.396938
0.396923
0.396912
0.396907
0.396907
0.396912
0.396923
0.396938
0.396955
0.396973
0.396988
0.397002
0.397011
0.397017
0.426426
0.42642
0.42641
0.426396
0.426379
0.426361
0.426344
0.426329
0.426317
0.426311
0.426311
0.426317
0.426329
0.426344
0.426362
0.426379
0.426396
0.42641
0.42642
0.426426
0.455837
0.455831
0.455822
0.455809
0.455793
0.455776
0.45576
0.455745
0.455734
0.455729
0.455729
0.455735
0.455745
0.45576
0.455776
0.455793
0.455809
0.455822
0.455831
0.455837
0.485251
0.485246
0.485237
0.485226
0.485212
0.485197
0.485182
0.48517
0.48516
0.485155
0.485155
0.48516
0.48517
0.485182
0.485197
0.485212
0.485226
0.485237
0.485246
0.485251
0.514667
0.514663
0.514655
0.514645
0.514633
0.514621
0.514609
0.514598
0.51459
0.514586
0.514586
0.51459
0.514598
0.514609
0.514621
0.514633
0.514645
0.514655
0.514663
0.514667
0.544084
0.54408
0.544074
0.544066
0.544056
0.544046
0.544036
0.544028
0.544022
0.544018
0.544018
0.544022
0.544028
0.544036
0.544046
0.544056
0.544066
0.544074
0.54408
0.544084
0.573501
0.573498
0.573494
0.573487
0.57348
0.573472
0.573464
0.573458
0.573453
0.57345
0.57345
0.573453
0.573458
0.573464
0.573472
0.57348
0.573487
0.573494
0.573498
0.573501
0.602918
0.602916
0.602912
0.602908
0.602902
0.602896
0.60289
0.602885
0.602882
0.60288
0.60288
0.602882
0.602885
0.60289
0.602896
0.602902
0.602908
0.602912
0.602916
0.602918
0.632335
0.632333
0.632331
0.632327
0.632323
0.632318
0.632314
0.632311
0.632308
0.632307
0.632307
0.632308
0.632311
0.632314
0.632318
0.632323
0.632327
0.632331
0.632333
0.632335
0.661751
0.66175
0.661748
0.661745
0.661742
0.661739
0.661736
0.661734
0.661732
0.661731
0.661731
0.661732
0.661734
0.661736
0.661739
0.661742
0.661745
0.661748
0.66175
0.661751
0.691166
0.691165
0.691164
0.691162
0.69116
0.691158
0.691156
0.691154
0.691153
0.691152
0.691152
0.691153
0.691154
0.691156
0.691158
0.69116
0.691162
0.691164
0.691165
0.691166
0.720581
0.72058
0.720579
0.720578
0.720577
0.720575
0.720574
0.720572
0.720572
0.720571
0.720571
0.720572
0.720572
0.720574
0.720575
0.720577
0.720578
0.720579
0.72058
0.720581
0.749995
0.749994
0.749994
0.749993
0.749992
0.749991
0.74999
0.749989
0.749989
0.749988
0.749988
0.749989
0.749989
0.74999
0.749991
0.749992
0.749993
0.749994
0.749994
0.749995
0.779408
0.779408
0.779407
0.779407
0.779406
0.779406
0.779405
0.779404
0.779404
0.779404
0.779404
0.779404
0.779404
0.779405
0.779406
0.779406
0.779407
0.779407
0.779408
0.779408
0.808821
0.80882
0.808821
0.80882
0.80882
0.808819
0.808819
0.808819
0.808818
0.808818
0.808818
0.808818
0.808819
0.808819
0.808819
0.80882
0.80882
0.808821
0.80882
0.808821
0.838233
0.838233
0.838233
0.838233
0.838233
0.838232
0.838233
0.838232
0.838232
0.838232
0.838232
0.838232
0.838232
0.838233
0.838232
0.838233
0.838233
0.838233
0.838233
0.838233
0.867646
0.867646
0.867646
0.867646
0.867645
0.867645
0.867645
0.867645
0.867645
0.867645
0.867645
0.867645
0.867645
0.867645
0.867645
0.867645
0.867646
0.867646
0.867646
0.867646
0.897058
0.897058
0.897058
0.897058
0.897058
0.897058
0.897058
0.897058
0.897058
0.897057
0.897058
0.897058
0.897058
0.897058
0.897058
0.897058
0.897058
0.897058
0.897058
0.897058
0.92647
0.92647
0.92647
0.92647
0.92647
0.92647
0.92647
0.92647
0.92647
0.92647
0.92647
0.92647
0.92647
0.92647
0.92647
0.92647
0.92647
0.92647
0.92647
0.92647
0.955882
0.955882
0.955882
0.955882
0.955882
0.955882
0.955882
0.955882
0.955882
0.955882
0.955882
0.955882
0.955882
0.955882
0.955882
0.955882
0.955882
0.955882
0.955882
0.955882
0.985294
0.985294
0.985294
0.985294
0.985294
0.985294
0.985294
0.985294
0.985294
0.985294
0.985294
0.985294
0.985294
0.985294
0.985294
0.985294
0.985294
0.985294
0.985294
0.985294
0.0147104
0.0147111
0.0147124
0.0147141
0.0147161
0.0147184
0.0147207
0.0147226
0.0147243
0.0147253
0.0147253
0.0147243
0.0147226
0.0147207
0.0147184
0.0147161
0.0147141
0.0147124
0.0147111
0.0147104
0.0441307
0.0441328
0.0441365
0.0441412
0.0441473
0.0441538
0.0441607
0.0441668
0.0441715
0.044174
0.044174
0.0441715
0.0441668
0.0441607
0.0441538
0.0441473
0.0441411
0.0441365
0.0441328
0.0441307
0.0735495
0.0735529
0.0735585
0.0735664
0.073576
0.0735869
0.0735979
0.0736079
0.0736157
0.0736199
0.0736199
0.0736157
0.0736079
0.0735979
0.0735869
0.073576
0.0735664
0.0735585
0.0735529
0.0735495
0.102967
0.102971
0.102978
0.102989
0.103002
0.103016
0.103031
0.103045
0.103056
0.103062
0.103062
0.103056
0.103045
0.103031
0.103016
0.103002
0.102989
0.102978
0.102971
0.102967
0.132381
0.132386
0.132395
0.132407
0.132423
0.132441
0.132459
0.132476
0.13249
0.132498
0.132498
0.13249
0.132476
0.132459
0.132441
0.132423
0.132407
0.132395
0.132386
0.132381
0.161792
0.161798
0.161808
0.161821
0.161838
0.161857
0.161878
0.161898
0.161914
0.161923
0.161923
0.161914
0.161898
0.161878
0.161857
0.161838
0.161821
0.161808
0.161798
0.161792
0.191201
0.191206
0.191215
0.191228
0.191244
0.191264
0.191285
0.191306
0.191323
0.191333
0.191333
0.191323
0.191306
0.191285
0.191264
0.191244
0.191228
0.191215
0.191206
0.191201
0.220605
0.220609
0.220617
0.220628
0.220642
0.220658
0.220677
0.220696
0.220712
0.220721
0.220721
0.220712
0.220696
0.220677
0.220658
0.220642
0.220628
0.220617
0.220609
0.220605
0.250007
0.250009
0.250014
0.25002
0.250029
0.250041
0.250054
0.250067
0.250079
0.250086
0.250086
0.250079
0.250067
0.250054
0.250041
0.250029
0.25002
0.250014
0.250009
0.250007
0.279406
0.279406
0.279407
0.279408
0.27941
0.279413
0.279418
0.279423
0.279429
0.279432
0.279432
0.279429
0.279423
0.279418
0.279413
0.27941
0.279408
0.279407
0.279406
0.279406
0.308804
0.308802
0.308798
0.308793
0.308787
0.308781
0.308776
0.308772
0.30877
0.308769
0.308769
0.30877
0.308772
0.308776
0.308781
0.308787
0.308793
0.308798
0.308802
0.308804
0.338204
0.338199
0.338191
0.338179
0.338166
0.338151
0.338136
0.338123
0.338114
0.338109
0.338109
0.338114
0.338123
0.338136
0.338151
0.338166
0.338179
0.338191
0.338199
0.338204
0.367605
0.367598
0.367587
0.367571
0.367552
0.36753
0.367508
0.367489
0.367475
0.367468
0.367468
0.367475
0.367489
0.367508
0.36753
0.367552
0.367571
0.367587
0.367598
0.367605
0.397009
0.397002
0.396988
0.39697
0.396948
0.396923
0.396898
0.396876
0.39686
0.396851
0.396851
0.39686
0.396876
0.396898
0.396923
0.396948
0.39697
0.396988
0.397002
0.397009
0.426418
0.42641
0.426396
0.426377
0.426355
0.426329
0.426304
0.426282
0.426266
0.426257
0.426257
0.426266
0.426282
0.426304
0.426329
0.426355
0.426377
0.426396
0.42641
0.426418
0.455829
0.455822
0.455809
0.455791
0.45577
0.455747
0.455724
0.455703
0.455689
0.455681
0.455681
0.455689
0.455704
0.455724
0.455747
0.45577
0.455791
0.455809
0.455822
0.455829
0.485244
0.485237
0.485226
0.485211
0.485192
0.485172
0.485152
0.485135
0.485122
0.485116
0.485116
0.485122
0.485135
0.485152
0.485172
0.485192
0.485211
0.485226
0.485237
0.485244
0.514661
0.514655
0.514646
0.514633
0.514617
0.514601
0.514585
0.514571
0.51456
0.514555
0.514555
0.51456
0.514571
0.514585
0.514601
0.514617
0.514633
0.514646
0.514655
0.514661
0.544079
0.544074
0.544066
0.544056
0.544044
0.544031
0.544018
0.544007
0.543999
0.543995
0.543995
0.543999
0.544007
0.544018
0.544031
0.544044
0.544056
0.544066
0.544074
0.544079
0.573497
0.573494
0.573488
0.57348
0.57347
0.57346
0.573451
0.573442
0.573436
0.573433
0.573433
0.573436
0.573442
0.573451
0.57346
0.57347
0.57348
0.573488
0.573494
0.573497
0.602915
0.602912
0.602908
0.602902
0.602895
0.602888
0.602881
0.602874
0.60287
0.602868
0.602868
0.60287
0.602874
0.602881
0.602888
0.602895
0.602902
0.602908
0.602912
0.602915
0.632332
0.63233
0.632327
0.632323
0.632318
0.632313
0.632308
0.632303
0.6323
0.632298
0.632298
0.6323
0.632303
0.632308
0.632313
0.632318
0.632323
0.632327
0.63233
0.632332
0.661749
0.661748
0.661746
0.661743
0.661739
0.661735
0.661732
0.661729
0.661726
0.661725
0.661725
0.661726
0.661729
0.661732
0.661735
0.661739
0.661743
0.661746
0.661748
0.661749
0.691165
0.691164
0.691163
0.69116
0.691158
0.691155
0.691153
0.691151
0.691149
0.691148
0.691148
0.691149
0.691151
0.691153
0.691155
0.691158
0.69116
0.691163
0.691164
0.691165
0.72058
0.720579
0.720578
0.720577
0.720575
0.720573
0.720571
0.72057
0.720569
0.720569
0.720569
0.720569
0.72057
0.720571
0.720573
0.720575
0.720577
0.720578
0.720579
0.72058
0.749994
0.749994
0.749993
0.749992
0.749991
0.74999
0.749989
0.749988
0.749987
0.749987
0.749987
0.749987
0.749988
0.749989
0.74999
0.749991
0.749992
0.749993
0.749994
0.749994
0.779408
0.779407
0.779407
0.779406
0.779406
0.779405
0.779404
0.779403
0.779403
0.779403
0.779403
0.779403
0.779403
0.779404
0.779405
0.779406
0.779406
0.779407
0.779407
0.779408
0.808821
0.808821
0.80882
0.80882
0.808819
0.808819
0.808819
0.808818
0.808818
0.808818
0.808818
0.808818
0.808818
0.808819
0.808819
0.808819
0.80882
0.80882
0.808821
0.808821
0.838233
0.838233
0.838233
0.838233
0.838233
0.838232
0.838232
0.838232
0.838232
0.838232
0.838232
0.838232
0.838232
0.838232
0.838232
0.838233
0.838233
0.838233
0.838233
0.838233
0.867646
0.867646
0.867646
0.867646
0.867645
0.867645
0.867645
0.867645
0.867645
0.867645
0.867645
0.867645
0.867645
0.867645
0.867645
0.867645
0.867646
0.867646
0.867646
0.867646
0.897058
0.897058
0.897058
0.897058
0.897058
0.897058
0.897058
0.897058
0.897058
0.897057
0.897058
0.897058
0.897058
0.897058
0.897058
0.897058
0.897058
0.897058
0.897058
0.897058
0.92647
0.92647
0.92647
0.92647
0.92647
0.92647
0.92647
0.92647
0.92647
0.92647
0.92647
0.92647
0.92647
0.92647
0.92647
0.92647
0.92647
0.92647
0.92647
0.92647
0.955882
0.955882
0.955882
0.955882
0.955882
0.955882
0.955882
0.955882
0.955882
0.955882
0.955882
0.955882
0.955882
0.955882
0.955882
0.955882
0.955882
0.955882
0.955882
0.955882
0.985294
0.985294
0.985294
0.985294
0.985294
0.985294
0.985294
0.985294
0.985294
0.985294
0.985294
0.985294
0.985294
0.985294
0.985294
0.985294
0.985294
0.985294
0.985294
0.985294
0.0147115
0.0147124
0.0147141
0.0147163
0.0147191
0.0147221
0.0147252
0.0147282
0.0147303
0.0147315
0.0147315
0.0147303
0.0147282
0.0147252
0.0147221
0.0147191
0.0147163
0.0147141
0.0147124
0.0147115
0.0441336
0.0441363
0.0441412
0.0441477
0.0441558
0.0441649
0.0441742
0.0441827
0.0441893
0.0441929
0.0441929
0.0441893
0.0441827
0.0441742
0.0441649
0.0441558
0.0441476
0.0441411
0.0441363
0.0441336
0.0735543
0.0735589
0.0735664
0.0735771
0.0735901
0.0736048
0.0736201
0.0736342
0.0736453
0.0736514
0.0736514
0.0736453
0.0736342
0.0736201
0.0736048
0.0735901
0.0735771
0.0735664
0.0735589
0.0735543
0.102973
0.102979
0.102989
0.103003
0.103021
0.103041
0.103062
0.103082
0.103098
0.103107
0.103107
0.103098
0.103082
0.103062
0.103041
0.103021
0.103003
0.102989
0.102979
0.102973
0.132388
0.132395
0.132407
0.132425
0.132446
0.132471
0.132498
0.132524
0.132544
0.132556
0.132556
0.132544
0.132524
0.132498
0.132471
0.132446
0.132424
0.132407
0.132395
0.132388
0.1618
0.161808
0.161821
0.16184
0.161864
0.161892
0.161923
0.161954
0.161979
0.161993
0.161993
0.161979
0.161954
0.161923
0.161892
0.161864
0.16184
0.161821
0.161808
0.1618
0.191208
0.191215
0.191228
0.191246
0.191271
0.1913
0.191332
0.191365
0.191393
0.19141
0.19141
0.191393
0.191365
0.191332
0.1913
0.191271
0.191246
0.191228
0.191215
0.191208
0.220611
0.220617
0.220628
0.220643
0.220664
0.22069
0.22072
0.22075
0.220777
0.220794
0.220794
0.220777
0.22075
0.22072
0.22069
0.220664
0.220643
0.220628
0.220617
0.220611
0.25001
0.250014
0.25002
0.25003
0.250044
0.250062
0.250084
0.250107
0.250127
0.25014
0.25014
0.250127
0.250107
0.250084
0.250062
0.250044
0.25003
0.25002
0.250014
0.25001
0.279406
0.279407
0.279408
0.27941
0.279414
0.27942
0.279428
0.279438
0.279448
0.279454
0.279454
0.279448
0.279438
0.279428
0.27942
0.279414
0.27941
0.279408
0.279407
0.279406
0.308801
0.308798
0.308793
0.308786
0.308777
0.308769
0.308761
0.308755
0.308753
0.308753
0.308753
0.308753
0.308755
0.308761
0.308769
0.308777
0.308786
0.308793
0.308798
0.308801
0.338197
0.338191
0.338179
0.338163
0.338143
0.338121
0.338097
0.338077
0.338063
0.338056
0.338056
0.338063
0.338077
0.338097
0.338121
0.338143
0.338163
0.338179
0.338191
0.338197
0.367596
0.367587
0.367571
0.367549
0.36752
0.367487
0.367453
0.367423
0.367401
0.36739
0.36739
0.367401
0.367423
0.367453
0.367487
0.36752
0.367549
0.367571
0.367587
0.367596
0.396999
0.396988
0.39697
0.396945
0.396912
0.396875
0.396836
0.396802
0.396778
0.396766
0.396766
0.396778
0.396802
0.396836
0.396875
0.396912
0.396945
0.39697
0.396988
0.396999
0.426407
0.426396
0.426377
0.426351
0.426319
0.426282
0.426245
0.426212
0.426189
0.426177
0.426177
0.426189
0.426212
0.426245
0.426282
0.426319
0.426351
0.426377
0.426396
0.426407
0.455819
0.455809
0.455791
0.455768
0.455738
0.455705
0.455672
0.455644
0.455623
0.455612
0.455612
0.455623
0.455644
0.455672
0.455705
0.455738
0.455768
0.455791
0.455809
0.455819
0.485235
0.485226
0.485211
0.48519
0.485165
0.485138
0.48511
0.485086
0.485069
0.485059
0.485059
0.485069
0.485086
0.48511
0.485138
0.485165
0.48519
0.485211
0.485226
0.485235
0.514653
0.514645
0.514633
0.514616
0.514596
0.514574
0.514552
0.514533
0.514519
0.514512
0.514512
0.514519
0.514533
0.514552
0.514574
0.514596
0.514616
0.514633
0.514645
0.514653
0.544072
0.544066
0.544056
0.544043
0.544027
0.54401
0.543994
0.543979
0.543968
0.543963
0.543963
0.543968
0.543979
0.543994
0.54401
0.544027
0.544043
0.544056
0.544066
0.544072
0.573492
0.573487
0.57348
0.573469
0.573458
0.573445
0.573433
0.573422
0.573414
0.57341
0.57341
0.573414
0.573422
0.573433
0.573445
0.573458
0.573469
0.57348
0.573487
0.573492
0.602911
0.602908
0.602902
0.602894
0.602886
0.602877
0.602868
0.60286
0.602854
0.602851
0.602851
0.602854
0.60286
0.602868
0.602877
0.602886
0.602894
0.602902
0.602908
0.602911
0.632329
0.632327
0.632323
0.632318
0.632311
0.632305
0.632299
0.632293
0.632289
0.632287
0.632287
0.632289
0.632293
0.632299
0.632305
0.632311
0.632318
0.632323
0.632327
0.632329
0.661747
0.661745
0.661743
0.661739
0.661734
0.66173
0.661725
0.661722
0.661719
0.661717
0.661717
0.661719
0.661722
0.661725
0.66173
0.661734
0.661739
0.661743
0.661745
0.661747
0.691163
0.691162
0.69116
0.691158
0.691155
0.691152
0.691149
0.691146
0.691144
0.691143
0.691143
0.691144
0.691146
0.691149
0.691152
0.691155
0.691158
0.69116
0.691162
0.691163
0.720579
0.720578
0.720577
0.720575
0.720573
0.720571
0.720569
0.720567
0.720566
0.720565
0.720565
0.720566
0.720567
0.720569
0.720571
0.720573
0.720575
0.720577
0.720578
0.720579
0.749993
0.749993
0.749992
0.749991
0.74999
0.749988
0.749987
0.749986
0.749985
0.749985
0.749985
0.749985
0.749986
0.749987
0.749988
0.74999
0.749991
0.749992
0.749993
0.749993
0.779407
0.779407
0.779406
0.779406
0.779405
0.779404
0.779403
0.779402
0.779402
0.779402
0.779402
0.779402
0.779402
0.779403
0.779404
0.779405
0.779406
0.779406
0.779407
0.779407
0.80882
0.80882
0.80882
0.808819
0.808819
0.808818
0.808818
0.808817
0.808817
0.808817
0.808817
0.808817
0.808817
0.808818
0.808818
0.808819
0.808819
0.80882
0.80882
0.80882
0.838233
0.838233
0.838233
0.838233
0.838232
0.838232
0.838231
0.838231
0.838231
0.838231
0.838231
0.838231
0.838231
0.838231
0.838232
0.838232
0.838233
0.838233
0.838233
0.838233
0.867646
0.867646
0.867646
0.867645
0.867645
0.867645
0.867645
0.867645
0.867645
0.867645
0.867645
0.867645
0.867645
0.867645
0.867645
0.867645
0.867645
0.867646
0.867646
0.867646
0.897058
0.897058
0.897058
0.897058
0.897058
0.897058
0.897057
0.897057
0.897057
0.897057
0.897057
0.897057
0.897057
0.897057
0.897058
0.897058
0.897058
0.897058
0.897058
0.897058
0.92647
0.92647
0.92647
0.92647
0.92647
0.92647
0.92647
0.92647
0.92647
0.92647
0.92647
0.92647
0.92647
0.92647
0.92647
0.92647
0.92647
0.92647
0.92647
0.92647
0.955882
0.955882
0.955882
0.955882
0.955882
0.955882
0.955882
0.955882
0.955882
0.955882
0.955882
0.955882
0.955882
0.955882
0.955882
0.955882
0.955882
0.955882
0.955882
0.955882
0.985294
0.985294
0.985294
0.985294
0.985294
0.985294
0.985294
0.985294
0.985294
0.985294
0.985294
0.985294
0.985294
0.985294
0.985294
0.985294
0.985294
0.985294
0.985294
0.985294
0.0147127
0.0147139
0.0147161
0.0147191
0.0147226
0.0147267
0.014731
0.0147349
0.0147379
0.0147395
0.0147395
0.0147379
0.0147349
0.014731
0.0147267
0.0147226
0.0147191
0.0147161
0.0147139
0.0147127
0.0441373
0.044141
0.0441473
0.0441558
0.0441665
0.0441787
0.0441911
0.0442027
0.0442118
0.0442167
0.0442168
0.0442118
0.0442027
0.0441911
0.0441787
0.0441665
0.0441558
0.0441473
0.044141
0.0441373
0.07356
0.0735659
0.073576
0.0735901
0.0736077
0.0736275
0.0736483
0.0736678
0.0736831
0.0736915
0.0736916
0.0736831
0.0736678
0.0736483
0.0736275
0.0736077
0.0735901
0.073576
0.0735659
0.07356
0.10298
0.102988
0.103002
0.103021
0.103045
0.103073
0.103102
0.10313
0.103152
0.103165
0.103165
0.103152
0.10313
0.103102
0.103073
0.103045
0.103021
0.103002
0.102988
0.10298
0.132397
0.132407
0.132423
0.132446
0.132476
0.132511
0.132549
0.132586
0.132617
0.132635
0.132635
0.132617
0.132586
0.132549
0.132511
0.132476
0.132446
0.132423
0.132407
0.132397
0.161809
0.16182
0.161838
0.161864
0.161898
0.161938
0.161984
0.16203
0.162069
0.162093
0.162093
0.162069
0.16203
0.161984
0.161938
0.161898
0.161864
0.161838
0.16182
0.161809
0.191216
0.191227
0.191244
0.19127
0.191305
0.191348
0.191397
0.191449
0.191497
0.191526
0.191526
0.191497
0.191449
0.191397
0.191348
0.191305
0.191271
0.191244
0.191227
0.191216
0.220618
0.220626
0.220641
0.220664
0.220695
0.220734
0.22078
0.22083
0.220879
0.22091
0.22091
0.220879
0.22083
0.22078
0.220734
0.220695
0.220664
0.220641
0.220626
0.220618
0.250014
0.25002
0.250029
0.250044
0.250066
0.250094
0.250129
0.250168
0.250204
0.250228
0.250228
0.250204
0.250168
0.250129
0.250094
0.250066
0.250044
0.250029
0.25002
0.250014
0.279407
0.279408
0.27941
0.279414
0.27942
0.279431
0.279446
0.279465
0.279483
0.27949
0.27949
0.279483
0.279465
0.279446
0.279431
0.27942
0.279414
0.27941
0.279408
0.279407
0.308798
0.308794
0.308787
0.308777
0.308766
0.308753
0.308742
0.308734
0.308732
0.308735
0.308735
0.308732
0.308734
0.308742
0.308753
0.308766
0.308777
0.308787
0.308794
0.308798
0.33819
0.338181
0.338166
0.338143
0.338114
0.338079
0.33804
0.338007
0.337985
0.337977
0.337977
0.337985
0.338007
0.33804
0.338079
0.338114
0.338143
0.338166
0.338181
0.33819
0.367586
0.367573
0.367552
0.36752
0.367478
0.367427
0.367371
0.367323
0.367287
0.367271
0.367271
0.367287
0.367323
0.367371
0.367427
0.367479
0.36752
0.367552
0.367573
0.367586
0.396987
0.396973
0.396948
0.396912
0.396865
0.396809
0.396748
0.396695
0.396662
0.396642
0.396642
0.396662
0.396695
0.396748
0.396809
0.396865
0.396912
0.396948
0.396973
0.396987
0.426394
0.426379
0.426355
0.426319
0.426273
0.426221
0.426165
0.426116
0.426084
0.426069
0.426069
0.426084
0.426116
0.426165
0.426221
0.426273
0.426319
0.426355
0.426379
0.426394
0.455807
0.455793
0.45577
0.455738
0.455698
0.455652
0.455605
0.455564
0.455535
0.455521
0.455521
0.455535
0.455564
0.455605
0.455652
0.455698
0.455738
0.45577
0.455793
0.455807
0.485223
0.485212
0.485192
0.485165
0.485132
0.485094
0.485057
0.485024
0.485
0.484988
0.484988
0.485
0.485024
0.485057
0.485094
0.485132
0.485165
0.485192
0.485212
0.485223
0.514643
0.514633
0.514617
0.514596
0.514569
0.51454
0.514511
0.514486
0.514467
0.514458
0.514458
0.514467
0.514486
0.514511
0.51454
0.514569
0.514596
0.514617
0.514633
0.514643
0.544064
0.544056
0.544044
0.544027
0.544007
0.543985
0.543963
0.543945
0.543931
0.543923
0.543923
0.543931
0.543945
0.543963
0.543985
0.544007
0.544027
0.544044
0.544056
0.544064
0.573485
0.57348
0.57347
0.573458
0.573443
0.573427
0.573411
0.573397
0.573387
0.573382
0.573382
0.573387
0.573397
0.573411
0.573427
0.573443
0.573458
0.57347
0.57348
0.573485
0.602906
0.602902
0.602895
0.602886
0.602875
0.602864
0.602852
0.602843
0.602836
0.602832
0.602832
0.602836
0.602843
0.602852
0.602864
0.602875
0.602886
0.602895
0.602902
0.602906
0.632326
0.632323
0.632318
0.632311
0.632304
0.632296
0.632288
0.632281
0.632276
0.632274
0.632274
0.632276
0.632281
0.632288
0.632296
0.632304
0.632311
0.632318
0.632323
0.632326
0.661744
0.661742
0.661739
0.661734
0.661729
0.661724
0.661718
0.661714
0.66171
0.661709
0.661709
0.66171
0.661714
0.661718
0.661724
0.661729
0.661734
0.661739
0.661742
0.661744
0.691162
0.69116
0.691158
0.691155
0.691151
0.691147
0.691144
0.691141
0.691139
0.691137
0.691137
0.691139
0.691141
0.691144
0.691147
0.691151
0.691155
0.691158
0.69116
0.691162
0.720577
0.720577
0.720575
0.720573
0.720571
0.720568
0.720566
0.720564
0.720562
0.720562
0.720562
0.720562
0.720564
0.720566
0.720568
0.720571
0.720573
0.720575
0.720577
0.720577
0.749992
0.749992
0.749991
0.74999
0.749988
0.749987
0.749985
0.749983
0.749983
0.749982
0.749982
0.749983
0.749983
0.749985
0.749987
0.749988
0.74999
0.749991
0.749992
0.749992
0.779406
0.779406
0.779406
0.779405
0.779404
0.779403
0.779402
0.779401
0.7794
0.7794
0.7794
0.7794
0.779401
0.779402
0.779403
0.779404
0.779405
0.779406
0.779406
0.779406
0.80882
0.80882
0.808819
0.808819
0.808818
0.808818
0.808817
0.808816