/*--------------------------------*- C++ -*----------------------------------*\
  =========                 |
  \\      /  F ield         | OpenFOAM: The Open Source CFD Toolbox
   \\    /   O peration     | Website:  https://openfoam.org
    \\  /    A nd           | Version:  13
     \\/     M anipulation  |
\*---------------------------------------------------------------------------*/
FoamFile
{
    format      ascii;
    class       volVectorField;
    location    "0";
    object      C;
}
// * * * * * * * * * * * * * * * * * * * * * * * * * * * * * * * * * * * * * //

dimensions      [0 1 0 0 0 0 0];

internalField   nonuniform List<vector> 
15625
(
(-0.0576813 -0.0576801 -0.0576789)
(-0.0535563 -0.059612 -0.0596137)
(-0.0492118 -0.0614337 -0.0614362)
(-0.0447131 -0.0631088 -0.0631117)
(-0.0400815 -0.0646263 -0.0646295)
(-0.0353325 -0.0659793 -0.0659826)
(-0.0304803 -0.0671623 -0.0671658)
(-0.025539 -0.068171 -0.0681745)
(-0.0205228 -0.0690015 -0.0690051)
(-0.0154464 -0.0696506 -0.0696543)
(-0.0103244 -0.0701158 -0.0701195)
(-0.00517122 -0.070395 -0.0703988)
(0 -0.0704879 -0.0704918)
(0.00517122 -0.070395 -0.0703988)
(0.0103244 -0.0701158 -0.0701195)
(0.0154464 -0.0696506 -0.0696543)
(0.0205228 -0.0690015 -0.0690051)
(0.025539 -0.068171 -0.0681745)
(0.0304803 -0.0671623 -0.0671658)
(0.0353325 -0.0659793 -0.0659826)
(0.0400815 -0.0646263 -0.0646295)
(0.0447131 -0.0631088 -0.0631117)
(0.0492118 -0.0614337 -0.0614362)
(0.0535563 -0.059612 -0.0596137)
(0.0576813 -0.0576801 -0.0576789)
(-0.0596052 -0.0535644 -0.0596129)
(-0.0553818 -0.055408 -0.0618489)
(-0.0509436 -0.0571604 -0.0639279)
(-0.0463358 -0.0587749 -0.0658408)
(-0.0415776 -0.0602383 -0.0675787)
(-0.0366846 -0.0615432 -0.0691333)
(-0.0316723 -0.0626841 -0.070497)
(-0.0265561 -0.0636567 -0.071663)
(-0.0213525 -0.0644573 -0.0726255)
(-0.0160779 -0.0650829 -0.0733796)
(-0.0107494 -0.0655311 -0.0739212)
(-0.00538424 -0.0658004 -0.0742477)
(0 -0.0658902 -0.0743569)
(0.00538424 -0.0658004 -0.0742477)
(0.0107494 -0.0655311 -0.0739212)
(0.0160779 -0.0650829 -0.0733796)
(0.0213525 -0.0644573 -0.0726255)
(0.0265561 -0.0636567 -0.071663)
(0.0316723 -0.0626841 -0.070497)
(0.0366846 -0.0615432 -0.0691333)
(0.0415776 -0.0602383 -0.0675787)
(0.0463358 -0.0587749 -0.0658408)
(0.0509436 -0.0571604 -0.0639279)
(0.0553818 -0.055408 -0.0618489)
(0.0596052 -0.0535644 -0.0596129)
(-0.0614208 -0.0492253 -0.0614375)
(-0.0571228 -0.0509803 -0.0639318)
(-0.052601 -0.0526518 -0.0662522)
(-0.0478923 -0.0541927 -0.0683925)
(-0.0430151 -0.0555899 -0.070342)
(-0.0379856 -0.0568362 -0.0720902)
(-0.0328204 -0.0579263 -0.0736271)
(-0.0275367 -0.0588558 -0.0749437)
(-0.0221528 -0.0596211 -0.0760323)
(-0.0166874 -0.0602193 -0.0768863)
(-0.01116 -0.060648 -0.0775007)
(-0.00559063 -0.0609058 -0.0778716)
(0 -0.0609918 -0.0779959)
(0.00559063 -0.0609058 -0.0778716)
(0.01116 -0.060648 -0.0775007)
(0.0166874 -0.0602193 -0.0768863)
(0.0221528 -0.0596211 -0.0760323)
(0.0275367 -0.0588558 -0.0749437)
(0.0328204 -0.0579263 -0.0736271)
(0.0379856 -0.0568362 -0.0720902)
(0.0430151 -0.0555899 -0.070342)
(0.0478923 -0.0541927 -0.0683925)
(0.052601 -0.0526518 -0.0662522)
(0.0571228 -0.0509803 -0.0639318)
(0.0614208 -0.0492253 -0.0614375)
(-0.0630925 -0.0447289 -0.0631158)
(-0.058732 -0.0463761 -0.06585)
(-0.054136 -0.0479468 -0.0683988)
(-0.049336 -0.0493961 -0.0707547)
(-0.04435 -0.0507111 -0.0729048)
(-0.0391948 -0.0518849 -0.074836)
(-0.0338884 -0.0529123 -0.0765362)
(-0.0284495 -0.053789 -0.0779946)
(-0.0228981 -0.0545112 -0.0792017)
(-0.0172552 -0.055076 -0.0801496)
(-0.0115427 -0.0554808 -0.080832)
(-0.00578321 -0.0557242 -0.0812443)
(0 -0.0558053 -0.0813825)
(0.00578321 -0.0557242 -0.0812443)
(0.0115427 -0.0554808 -0.080832)
(0.0172552 -0.055076 -0.0801496)
(0.0228981 -0.0545112 -0.0792017)
(0.0284495 -0.053789 -0.0779946)
(0.0338884 -0.0529123 -0.0765362)
(0.0391948 -0.0518849 -0.074836)
(0.04435 -0.0507111 -0.0729048)
(0.049336 -0.0493961 -0.0707547)
(0.054136 -0.0479468 -0.0683988)
(0.058732 -0.0463761 -0.06585)
(0.0630925 -0.0447289 -0.0631158)
(-0.0646089 -0.0400973 -0.0646359)
(-0.0601952 -0.041616 -0.0675926)
(-0.0555338 -0.0430663 -0.0703546)
(-0.0506522 -0.0444058 -0.0729116)
(-0.0455681 -0.0456226 -0.0752485)
(-0.0402992 -0.0467098 -0.07735)
(-0.0348644 -0.0476622 -0.0792022)
(-0.029284 -0.0484756 -0.0807923)
(-0.0235798 -0.0491462 -0.0821095)
(-0.0177748 -0.0496708 -0.0831443)
(-0.0118931 -0.050047 -0.0838897)
(-0.00595959 -0.050273 -0.0843402)
(0 -0.0503483 -0.0844912)
(0.00595959 -0.050273 -0.0843402)
(0.0118931 -0.050047 -0.0838897)
(0.0177748 -0.0496708 -0.0831443)
(0.0235798 -0.0491462 -0.0821095)
(0.029284 -0.0484756 -0.0807923)
(0.0348644 -0.0476622 -0.0792022)
(0.0402992 -0.0467098 -0.07735)
(0.0455681 -0.0456226 -0.0752485)
(0.0506522 -0.0444058 -0.0729116)
(0.0555338 -0.0430663 -0.0703546)
(0.0601952 -0.041616 -0.0675926)
(0.0646089 -0.0400973 -0.0646359)
(-0.0659627 -0.0353466 -0.0659906)
(-0.0615037 -0.0367176 -0.0691503)
(-0.0567854 -0.0380291 -0.0721072)
(-0.0518319 -0.0392419 -0.0748483)
(-0.0466609 -0.0403449 -0.077356)
(-0.0412906 -0.0413316 -0.0796133)
(-0.0357411 -0.042197 -0.0816044)
(-0.030034 -0.0429366 -0.0833149)
(-0.0241927 -0.0435469 -0.0847326)
(-0.0182421 -0.0440245 -0.085847)
(-0.0122083 -0.0443671 -0.0866498)
(-0.00611828 -0.0445728 -0.087135)
(0 -0.0446413 -0.0872976)
(0.00611828 -0.0445728 -0.087135)
(0.0122083 -0.0443671 -0.0866498)
(0.0182421 -0.0440245 -0.085847)
(0.0241927 -0.0435469 -0.0847326)
(0.030034 -0.0429366 -0.0833149)
(0.0357411 -0.042197 -0.0816044)
(0.0412906 -0.0413316 -0.0796133)
(0.0466609 -0.0403449 -0.077356)
(0.0518319 -0.0392419 -0.0748483)
(0.0567854 -0.0380291 -0.0721072)
(0.0615037 -0.0367176 -0.0691503)
(0.0659627 -0.0353466 -0.0659906)
(-0.0671479 -0.0304917 -0.0671742)
(-0.0626508 -0.031698 -0.0705149)
(-0.0578837 -0.032854 -0.073646)
(-0.052868 -0.0339246 -0.0765516)
(-0.0476213 -0.0348995 -0.0792121)
(-0.0421625 -0.0357727 -0.0816088)
(-0.0365125 -0.0365393 -0.0837243)
(-0.0306941 -0.0371951 -0.0855427)
(-0.0247324 -0.0377366 -0.0870504)
(-0.0186537 -0.0381606 -0.088236)
(-0.0124859 -0.0384648 -0.0890901)
(-0.00625811 -0.0386473 -0.0896063)
(0 -0.038708 -0.0897792)
(0.00625811 -0.0386473 -0.0896063)
(0.0124859 -0.0384648 -0.0890901)
(0.0186537 -0.0381606 -0.088236)
(0.0247324 -0.0377366 -0.0870504)
(0.0306941 -0.0371951 -0.0855427)
(0.0365125 -0.0365393 -0.0837243)
(0.0421625 -0.0357727 -0.0816088)
(0.0476213 -0.0348995 -0.0792121)
(0.052868 -0.0339246 -0.0765516)
(0.0578837 -0.032854 -0.073646)
(0.0626508 -0.031698 -0.0705149)
(0.0671479 -0.0304917 -0.0671742)
(-0.0681596 -0.0255473 -0.0681824)
(-0.0636308 -0.0265744 -0.0716797)
(-0.0588228 -0.0275603 -0.0749621)
(-0.0537547 -0.0284748 -0.0780105)
(-0.0484437 -0.0293087 -0.080804)
(-0.0429095 -0.0300563 -0.083322)
(-0.0371736 -0.0307134 -0.0855457)
(-0.0312602 -0.0312761 -0.0874581)
(-0.0251953 -0.0317409 -0.0890444)
(-0.0190068 -0.0321051 -0.0902919)
(-0.0127242 -0.0323663 -0.0911908)
(-0.0063781 -0.0325229 -0.0917339)
(0 -0.0325749 -0.0919157)
(0.0063781 -0.0325229 -0.0917339)
(0.0127242 -0.0323663 -0.0911908)
(0.0190068 -0.0321051 -0.0902919)
(0.0251953 -0.0317409 -0.0890444)
(0.0312602 -0.0312761 -0.0874581)
(0.0371736 -0.0307134 -0.0855457)
(0.0429095 -0.0300563 -0.083322)
(0.0484437 -0.0293087 -0.080804)
(0.0537547 -0.0284748 -0.0780105)
(0.0588228 -0.0275603 -0.0749621)
(0.0636308 -0.0265744 -0.0716797)
(0.0681596 -0.0255473 -0.0681824)
(-0.0689933 -0.0205283 -0.0690116)
(-0.064439 -0.021364 -0.0726394)
(-0.0595979 -0.0221676 -0.076048)
(-0.0544868 -0.022914 -0.079216)
(-0.0491232 -0.0235955 -0.0821208)
(-0.043527 -0.0242071 -0.0847405)
(-0.0377204 -0.0247452 -0.087055)
(-0.0317285 -0.0252062 -0.0890463)
(-0.0255783 -0.0255873 -0.0906984)
(-0.019299 -0.025886 -0.091998)
(-0.0129214 -0.0261002 -0.0929344)
(-0.00647742 -0.0262286 -0.0934999)
(0 -0.0262712 -0.0936892)
(0.00647742 -0.0262286 -0.0934999)
(0.0129214 -0.0261002 -0.0929344)
(0.019299 -0.025886 -0.091998)
(0.0255783 -0.0255873 -0.0906984)
(0.0317285 -0.0252062 -0.0890463)
(0.0377204 -0.0247452 -0.087055)
(0.043527 -0.0242071 -0.0847405)
(0.0491232 -0.0235955 -0.0821208)
(0.0544868 -0.022914 -0.079216)
(0.0595979 -0.0221676 -0.076048)
(0.064439 -0.021364 -0.0726394)
(0.0689933 -0.0205283 -0.0690116)
(-0.0696455 -0.0154496 -0.069659)
(-0.0650716 -0.0160843 -0.0733897)
(-0.0602048 -0.0166956 -0.0768981)
(-0.0550605 -0.017264 -0.0801608)
(-0.0496559 -0.0177836 -0.0831537)
(-0.0440112 -0.0182505 -0.0858541)
(-0.0381493 -0.0186614 -0.0882408)
(-0.0320959 -0.0190138 -0.0902947)
(-0.0258789 -0.0193051 -0.0919991)
(-0.0195284 -0.0195336 -0.09334)
(-0.0130762 -0.0196974 -0.0943062)
(-0.00655541 -0.0197956 -0.0948896)
(0 -0.0198281 -0.0950847)
(0.00655541 -0.0197956 -0.0948896)
(0.0130762 -0.0196974 -0.0943062)
(0.0195284 -0.0195336 -0.09334)
(0.0258789 -0.0193051 -0.0919991)
(0.0320959 -0.0190138 -0.0902947)
(0.0381493 -0.0186614 -0.0882408)
(0.0440112 -0.0182505 -0.0858541)
(0.0496559 -0.0177836 -0.0831537)
(0.0550605 -0.017264 -0.0801608)
(0.0602048 -0.0166956 -0.0768981)
(0.0650716 -0.0160843 -0.0733897)
(0.0696455 -0.0154496 -0.069659)
(-0.0701132 -0.0103259 -0.0701224)
(-0.0655253 -0.0107524 -0.0739274)
(-0.0606405 -0.0111638 -0.0775081)
(-0.0554725 -0.0115469 -0.0808394)
(-0.0500387 -0.0118974 -0.0838963)
(-0.0443593 -0.0122125 -0.0866551)
(-0.0384577 -0.0124901 -0.0890941)
(-0.0323601 -0.0127282 -0.0911935)
(-0.0260951 -0.0129252 -0.0929359)
(-0.0196934 -0.0130796 -0.0943068)
(-0.0131876 -0.0131904 -0.0952946)
(-0.00661151 -0.0132567 -0.0958909)
(0 -0.0132787 -0.0960903)
(0.00661151 -0.0132567 -0.0958909)
(0.0131876 -0.0131904 -0.0952946)
(0.0196934 -0.0130796 -0.0943068)
(0.0260951 -0.0129252 -0.0929359)
(0.0323601 -0.0127282 -0.0911935)
(0.0384577 -0.0124901 -0.0890941)
(0.0443593 -0.0122125 -0.0866551)
(0.0500387 -0.0118974 -0.0838963)
(0.0554725 -0.0115469 -0.0808394)
(0.0606405 -0.0111638 -0.0775081)
(0.0655253 -0.0107524 -0.0739274)
(0.0701132 -0.0103259 -0.0701224)
(-0.070394 -0.00517162 -0.0704001)
(-0.0657983 -0.0053853 -0.0742505)
(-0.0609028 -0.005592 -0.0778751)
(-0.0557208 -0.00578475 -0.081248)
(-0.0502694 -0.00596122 -0.0843436)
(-0.0445691 -0.00611997 -0.087138)
(-0.0386437 -0.00625986 -0.0896087)
(-0.0325195 -0.00637989 -0.0917356)
(-0.0262255 -0.00647921 -0.0935011)
(-0.0197929 -0.0065571 -0.0948902)
(-0.0132548 -0.00661297 -0.0958911)
(-0.00664535 -0.00664641 -0.0964952)
(0 -0.00665749 -0.0966972)
(0.00664535 -0.00664641 -0.0964952)
(0.0132548 -0.00661297 -0.0958911)
(0.0197929 -0.0065571 -0.0948902)
(0.0262255 -0.00647921 -0.0935011)
(0.0325195 -0.00637989 -0.0917356)
(0.0386437 -0.00625986 -0.0896087)
(0.0445691 -0.00611997 -0.087138)
(0.0502694 -0.00596122 -0.0843436)
(0.0557208 -0.00578475 -0.081248)
(0.0609028 -0.005592 -0.0778751)
(0.0657983 -0.0053853 -0.0742505)
(0.070394 -0.00517162 -0.0704001)
(-0.0704875 0 -0.0704924)
(-0.0658894 0 -0.0743583)
(-0.0609905 0 -0.0779976)
(-0.0558038 0 -0.0813844)
(-0.0503465 0 -0.0844931)
(-0.0446393 0 -0.0872993)
(-0.0387058 -7.64531e-21 -0.0897807)
(-0.0325728 0 -0.0919168)
(-0.0262691 0 -0.09369)
(-0.0198262 0 -0.0950852)
(-0.0132772 -1.48228e-20 -0.0960905)
(-0.00665666 0 -0.0966972)
(0 0 -0.0969001)
(0.00665666 0 -0.0966972)
(0.0132772 0 -0.0960905)
(0.0198262 -1.52131e-20 -0.0950852)
(0.0262691 0 -0.09369)
(0.0325728 0 -0.0919168)
(0.0387058 0 -0.0897807)
(0.0446393 -8.25603e-21 -0.0872993)
(0.0503465 0 -0.0844931)
(0.0558038 0 -0.0813844)
(0.0609905 0 -0.0779976)
(0.0658894 0 -0.0743583)
(0.0704875 0 -0.0704924)
(-0.070394 0.00517162 -0.0704001)
(-0.0657983 0.0053853 -0.0742505)
(-0.0609028 0.005592 -0.0778751)
(-0.0557208 0.00578475 -0.081248)
(-0.0502694 0.00596122 -0.0843436)
(-0.0445691 0.00611997 -0.087138)
(-0.0386437 0.00625986 -0.0896087)
(-0.0325195 0.00637989 -0.0917356)
(-0.0262255 0.00647921 -0.0935011)
(-0.0197929 0.0065571 -0.0948902)
(-0.0132548 0.00661297 -0.0958911)
(-0.00664535 0.00664641 -0.0964952)
(0 0.00665749 -0.0966972)
(0.00664535 0.00664641 -0.0964952)
(0.0132548 0.00661297 -0.0958911)
(0.0197929 0.0065571 -0.0948902)
(0.0262255 0.00647921 -0.0935011)
(0.0325195 0.00637989 -0.0917356)
(0.0386437 0.00625986 -0.0896087)
(0.0445691 0.00611997 -0.087138)
(0.0502694 0.00596122 -0.0843436)
(0.0557208 0.00578475 -0.081248)
(0.0609028 0.005592 -0.0778751)
(0.0657983 0.0053853 -0.0742505)
(0.070394 0.00517162 -0.0704001)
(-0.0701132 0.0103259 -0.0701224)
(-0.0655253 0.0107524 -0.0739274)
(-0.0606405 0.0111638 -0.0775081)
(-0.0554725 0.0115469 -0.0808394)
(-0.0500387 0.0118974 -0.0838963)
(-0.0443593 0.0122125 -0.0866551)
(-0.0384577 0.0124901 -0.0890941)
(-0.0323601 0.0127282 -0.0911935)
(-0.0260951 0.0129252 -0.0929359)
(-0.0196934 0.0130796 -0.0943068)
(-0.0131876 0.0131904 -0.0952946)
(-0.00661151 0.0132567 -0.0958909)
(0 0.0132787 -0.0960903)
(0.00661151 0.0132567 -0.0958909)
(0.0131876 0.0131904 -0.0952946)
(0.0196934 0.0130796 -0.0943068)
(0.0260951 0.0129252 -0.0929359)
(0.0323601 0.0127282 -0.0911935)
(0.0384577 0.0124901 -0.0890941)
(0.0443593 0.0122125 -0.0866551)
(0.0500387 0.0118974 -0.0838963)
(0.0554725 0.0115469 -0.0808394)
(0.0606405 0.0111638 -0.0775081)
(0.0655253 0.0107524 -0.0739274)
(0.0701132 0.0103259 -0.0701224)
(-0.0696455 0.0154496 -0.069659)
(-0.0650716 0.0160843 -0.0733897)
(-0.0602048 0.0166956 -0.0768981)
(-0.0550605 0.017264 -0.0801608)
(-0.0496559 0.0177836 -0.0831537)
(-0.0440112 0.0182505 -0.0858541)
(-0.0381493 0.0186614 -0.0882408)
(-0.0320959 0.0190138 -0.0902947)
(-0.0258789 0.0193051 -0.0919991)
(-0.0195284 0.0195336 -0.09334)
(-0.0130762 0.0196974 -0.0943062)
(-0.00655541 0.0197956 -0.0948896)
(0 0.0198281 -0.0950847)
(0.00655541 0.0197956 -0.0948896)
(0.0130762 0.0196974 -0.0943062)
(0.0195284 0.0195336 -0.09334)
(0.0258789 0.0193051 -0.0919991)
(0.0320959 0.0190138 -0.0902947)
(0.0381493 0.0186614 -0.0882408)
(0.0440112 0.0182505 -0.0858541)
(0.0496559 0.0177836 -0.0831537)
(0.0550605 0.017264 -0.0801608)
(0.0602048 0.0166956 -0.0768981)
(0.0650716 0.0160843 -0.0733897)
(0.0696455 0.0154496 -0.069659)
(-0.0689933 0.0205283 -0.0690116)
(-0.064439 0.021364 -0.0726394)
(-0.0595979 0.0221676 -0.076048)
(-0.0544868 0.022914 -0.079216)
(-0.0491232 0.0235955 -0.0821208)
(-0.043527 0.0242071 -0.0847405)
(-0.0377204 0.0247452 -0.087055)
(-0.0317285 0.0252062 -0.0890463)
(-0.0255783 0.0255873 -0.0906984)
(-0.019299 0.025886 -0.091998)
(-0.0129214 0.0261002 -0.0929344)
(-0.00647742 0.0262286 -0.0934999)
(0 0.0262712 -0.0936892)
(0.00647742 0.0262286 -0.0934999)
(0.0129214 0.0261002 -0.0929344)
(0.019299 0.025886 -0.091998)
(0.0255783 0.0255873 -0.0906984)
(0.0317285 0.0252062 -0.0890463)
(0.0377204 0.0247452 -0.087055)
(0.043527 0.0242071 -0.0847405)
(0.0491232 0.0235955 -0.0821208)
(0.0544868 0.022914 -0.079216)
(0.0595979 0.0221676 -0.076048)
(0.064439 0.021364 -0.0726394)
(0.0689933 0.0205283 -0.0690116)
(-0.0681596 0.0255473 -0.0681824)
(-0.0636308 0.0265744 -0.0716797)
(-0.0588228 0.0275603 -0.0749621)
(-0.0537547 0.0284748 -0.0780105)
(-0.0484437 0.0293087 -0.080804)
(-0.0429095 0.0300563 -0.083322)
(-0.0371736 0.0307134 -0.0855457)
(-0.0312602 0.0312761 -0.0874581)
(-0.0251953 0.0317409 -0.0890444)
(-0.0190068 0.0321051 -0.0902919)
(-0.0127242 0.0323663 -0.0911908)
(-0.0063781 0.0325229 -0.0917339)
(0 0.0325749 -0.0919157)
(0.0063781 0.0325229 -0.0917339)
(0.0127242 0.0323663 -0.0911908)
(0.0190068 0.0321051 -0.0902919)
(0.0251953 0.0317409 -0.0890444)
(0.0312602 0.0312761 -0.0874581)
(0.0371736 0.0307134 -0.0855457)
(0.0429095 0.0300563 -0.083322)
(0.0484437 0.0293087 -0.080804)
(0.0537547 0.0284748 -0.0780105)
(0.0588228 0.0275603 -0.0749621)
(0.0636308 0.0265744 -0.0716797)
(0.0681596 0.0255473 -0.0681824)
(-0.0671479 0.0304917 -0.0671742)
(-0.0626508 0.031698 -0.0705149)
(-0.0578837 0.032854 -0.073646)
(-0.052868 0.0339246 -0.0765516)
(-0.0476213 0.0348995 -0.0792121)
(-0.0421625 0.0357727 -0.0816088)
(-0.0365125 0.0365393 -0.0837243)
(-0.0306941 0.0371951 -0.0855427)
(-0.0247324 0.0377366 -0.0870504)
(-0.0186537 0.0381606 -0.088236)
(-0.0124859 0.0384648 -0.0890901)
(-0.00625811 0.0386473 -0.0896063)
(0 0.038708 -0.0897792)
(0.00625811 0.0386473 -0.0896063)
(0.0124859 0.0384648 -0.0890901)
(0.0186537 0.0381606 -0.088236)
(0.0247324 0.0377366 -0.0870504)
(0.0306941 0.0371951 -0.0855427)
(0.0365125 0.0365393 -0.0837243)
(0.0421625 0.0357727 -0.0816088)
(0.0476213 0.0348995 -0.0792121)
(0.052868 0.0339246 -0.0765516)
(0.0578837 0.032854 -0.073646)
(0.0626508 0.031698 -0.0705149)
(0.0671479 0.0304917 -0.0671742)
(-0.0659627 0.0353466 -0.0659906)
(-0.0615037 0.0367176 -0.0691503)
(-0.0567854 0.0380291 -0.0721072)
(-0.0518319 0.0392419 -0.0748483)
(-0.0466609 0.0403449 -0.077356)
(-0.0412906 0.0413316 -0.0796133)
(-0.0357411 0.042197 -0.0816044)
(-0.030034 0.0429366 -0.0833149)
(-0.0241927 0.0435469 -0.0847326)
(-0.0182421 0.0440245 -0.085847)
(-0.0122083 0.0443671 -0.0866498)
(-0.00611828 0.0445728 -0.087135)
(0 0.0446413 -0.0872976)
(0.00611828 0.0445728 -0.087135)
(0.0122083 0.0443671 -0.0866498)
(0.0182421 0.0440245 -0.085847)
(0.0241927 0.0435469 -0.0847326)
(0.030034 0.0429366 -0.0833149)
(0.0357411 0.042197 -0.0816044)
(0.0412906 0.0413316 -0.0796133)
(0.0466609 0.0403449 -0.077356)
(0.0518319 0.0392419 -0.0748483)
(0.0567854 0.0380291 -0.0721072)
(0.0615037 0.0367176 -0.0691503)
(0.0659627 0.0353466 -0.0659906)
(-0.0646089 0.0400973 -0.0646359)
(-0.0601952 0.041616 -0.0675926)
(-0.0555338 0.0430663 -0.0703546)
(-0.0506522 0.0444058 -0.0729116)
(-0.0455681 0.0456226 -0.0752485)
(-0.0402992 0.0467098 -0.07735)
(-0.0348644 0.0476622 -0.0792022)
(-0.029284 0.0484756 -0.0807923)
(-0.0235798 0.0491462 -0.0821095)
(-0.0177748 0.0496708 -0.0831443)
(-0.0118931 0.050047 -0.0838897)
(-0.00595959 0.050273 -0.0843402)
(0 0.0503483 -0.0844912)
(0.00595959 0.050273 -0.0843402)
(0.0118931 0.050047 -0.0838897)
(0.0177748 0.0496708 -0.0831443)
(0.0235798 0.0491462 -0.0821095)
(0.029284 0.0484756 -0.0807923)
(0.0348644 0.0476622 -0.0792022)
(0.0402992 0.0467098 -0.07735)
(0.0455681 0.0456226 -0.0752485)
(0.0506522 0.0444058 -0.0729116)
(0.0555338 0.0430663 -0.0703546)
(0.0601952 0.041616 -0.0675926)
(0.0646089 0.0400973 -0.0646359)
(-0.0630925 0.0447289 -0.0631158)
(-0.058732 0.0463761 -0.06585)
(-0.054136 0.0479468 -0.0683988)
(-0.049336 0.0493961 -0.0707547)
(-0.04435 0.0507111 -0.0729048)
(-0.0391948 0.0518849 -0.074836)
(-0.0338884 0.0529123 -0.0765362)
(-0.0284495 0.053789 -0.0779946)
(-0.0228981 0.0545112 -0.0792017)
(-0.0172552 0.055076 -0.0801496)
(-0.0115427 0.0554808 -0.080832)
(-0.00578321 0.0557242 -0.0812443)
(0 0.0558053 -0.0813825)
(0.00578321 0.0557242 -0.0812443)
(0.0115427 0.0554808 -0.080832)
(0.0172552 0.055076 -0.0801496)
(0.0228981 0.0545112 -0.0792017)
(0.0284495 0.053789 -0.0779946)
(0.0338884 0.0529123 -0.0765362)
(0.0391948 0.0518849 -0.074836)
(0.04435 0.0507111 -0.0729048)
(0.049336 0.0493961 -0.0707547)
(0.054136 0.0479468 -0.0683988)
(0.058732 0.0463761 -0.06585)
(0.0630925 0.0447289 -0.0631158)
(-0.0614208 0.0492253 -0.0614375)
(-0.0571228 0.0509803 -0.0639318)
(-0.052601 0.0526518 -0.0662522)
(-0.0478923 0.0541927 -0.0683925)
(-0.0430151 0.0555899 -0.070342)
(-0.0379856 0.0568362 -0.0720902)
(-0.0328204 0.0579263 -0.0736271)
(-0.0275367 0.0588558 -0.0749437)
(-0.0221528 0.0596211 -0.0760323)
(-0.0166874 0.0602193 -0.0768863)
(-0.01116 0.060648 -0.0775007)
(-0.00559063 0.0609058 -0.0778716)
(0 0.0609918 -0.0779959)
(0.00559063 0.0609058 -0.0778716)
(0.01116 0.060648 -0.0775007)
(0.0166874 0.0602193 -0.0768863)
(0.0221528 0.0596211 -0.0760323)
(0.0275367 0.0588558 -0.0749437)
(0.0328204 0.0579263 -0.0736271)
(0.0379856 0.0568362 -0.0720902)
(0.0430151 0.0555899 -0.070342)
(0.0478923 0.0541927 -0.0683925)
(0.052601 0.0526518 -0.0662522)
(0.0571228 0.0509803 -0.0639318)
(0.0614208 0.0492253 -0.0614375)
(-0.0596052 0.0535644 -0.0596129)
(-0.0553818 0.055408 -0.0618489)
(-0.0509436 0.0571604 -0.0639279)
(-0.0463358 0.0587749 -0.0658408)
(-0.0415776 0.0602383 -0.0675787)
(-0.0366846 0.0615432 -0.0691333)
(-0.0316723 0.0626841 -0.070497)
(-0.0265561 0.0636567 -0.071663)
(-0.0213525 0.0644573 -0.0726255)
(-0.0160779 0.0650829 -0.0733796)
(-0.0107494 0.0655311 -0.0739212)
(-0.00538424 0.0658004 -0.0742477)
(0 0.0658902 -0.0743569)
(0.00538424 0.0658004 -0.0742477)
(0.0107494 0.0655311 -0.0739212)
(0.0160779 0.0650829 -0.0733796)
(0.0213525 0.0644573 -0.0726255)
(0.0265561 0.0636567 -0.071663)
(0.0316723 0.0626841 -0.070497)
(0.0366846 0.0615432 -0.0691333)
(0.0415776 0.0602383 -0.0675787)
(0.0463358 0.0587749 -0.0658408)
(0.0509436 0.0571604 -0.0639279)
(0.0553818 0.055408 -0.0618489)
(0.0596052 0.0535644 -0.0596129)
(-0.0576813 0.0576801 -0.0576789)
(-0.0535563 0.059612 -0.0596137)
(-0.0492118 0.0614337 -0.0614362)
(-0.0447131 0.0631088 -0.0631117)
(-0.0400815 0.0646263 -0.0646295)
(-0.0353325 0.0659793 -0.0659826)
(-0.0304803 0.0671623 -0.0671658)
(-0.025539 0.068171 -0.0681745)
(-0.0205228 0.0690015 -0.0690051)
(-0.0154464 0.0696506 -0.0696543)
(-0.0103244 0.0701158 -0.0701195)
(-0.00517122 0.070395 -0.0703988)
(0 0.0704879 -0.0704918)
(0.00517122 0.070395 -0.0703988)
(0.0103244 0.0701158 -0.0701195)
(0.0154464 0.0696506 -0.0696543)
(0.0205228 0.0690015 -0.0690051)
(0.025539 0.068171 -0.0681745)
(0.0304803 0.0671623 -0.0671658)
(0.0353325 0.0659793 -0.0659826)
(0.0400815 0.0646263 -0.0646295)
(0.0447131 0.0631088 -0.0631117)
(0.0492118 0.0614337 -0.0614362)
(0.0535563 0.059612 -0.0596137)
(0.0576813 0.0576801 -0.0576789)
(-0.0596044 -0.059606 -0.0535725)
(-0.055382 -0.0618398 -0.0554174)
(-0.050944 -0.0639181 -0.0571703)
(-0.0463363 -0.0658306 -0.058785)
(-0.0415781 -0.0675683 -0.0602485)
(-0.0366851 -0.0691227 -0.0615535)
(-0.0316727 -0.0704863 -0.0626945)
(-0.0265565 -0.0716523 -0.0636671)
(-0.0213528 -0.0726148 -0.0644678)
(-0.0160781 -0.0733688 -0.0650934)
(-0.0107496 -0.0739104 -0.0655417)
(-0.00538433 -0.0742368 -0.0658111)
(0 -0.074346 -0.0659009)
(0.00538433 -0.0742368 -0.0658111)
(0.0107496 -0.0739104 -0.0655417)
(0.0160781 -0.0733688 -0.0650934)
(0.0213528 -0.0726148 -0.0644678)
(0.0265565 -0.0716523 -0.0636671)
(0.0316727 -0.0704863 -0.0626945)
(0.0366851 -0.0691227 -0.0615535)
(0.0415781 -0.0675683 -0.0602485)
(0.0463363 -0.0658306 -0.058785)
(0.050944 -0.0639181 -0.0571703)
(0.055382 -0.0618398 -0.0554174)
(0.0596044 -0.059606 -0.0535725)
(-0.0618306 -0.0553914 -0.0554176)
(-0.0574943 -0.0575214 -0.0575485)
(-0.0529422 -0.0595138 -0.0595412)
(-0.0482028 -0.0613497 -0.0613774)
(-0.0432939 -0.0630183 -0.0630461)
(-0.0382317 -0.0645109 -0.0645388)
(-0.0330329 -0.0658201 -0.065848)
(-0.027715 -0.0669393 -0.0669673)
(-0.0222961 -0.067863 -0.067891)
(-0.0167953 -0.0685865 -0.0686146)
(-0.0112321 -0.0691062 -0.0691343)
(-0.00562678 -0.0694194 -0.0694476)
(0 -0.0695242 -0.0695524)
(0.00562678 -0.0694194 -0.0694476)
(0.0112321 -0.0691062 -0.0691343)
(0.0167953 -0.0685865 -0.0686146)
(0.0222961 -0.067863 -0.067891)
(0.027715 -0.0669393 -0.0669673)
(0.0330329 -0.0658201 -0.065848)
(0.0382317 -0.0645109 -0.0645388)
(0.0432939 -0.0630183 -0.0630461)
(0.0482028 -0.0613497 -0.0613774)
(0.0529422 -0.0595138 -0.0595412)
(0.0574943 -0.0575214 -0.0575485)
(0.0618306 -0.0553914 -0.0554176)
(-0.0639038 -0.050958 -0.0571723)
(-0.0594756 -0.0529793 -0.0595449)
(-0.0548195 -0.0548705 -0.0617621)
(-0.0499581 -0.0566135 -0.0638089)
(-0.0449087 -0.058198 -0.0656733)
(-0.0396883 -0.0596155 -0.0673449)
(-0.0343148 -0.0608591 -0.0688139)
(-0.0288073 -0.0619225 -0.0700721)
(-0.023186 -0.0628002 -0.0711122)
(-0.0174721 -0.0634878 -0.071928)
(-0.0116878 -0.0639818 -0.0725147)
(-0.00585591 -0.0642795 -0.0728689)
(0 -0.064379 -0.0729876)
(0.00585591 -0.0642795 -0.0728689)
(0.0116878 -0.0639818 -0.0725147)
(0.0174721 -0.0634878 -0.071928)
(0.023186 -0.0628002 -0.0711122)
(0.0288073 -0.0619225 -0.0700721)
(0.0343148 -0.0608591 -0.0688139)
(0.0396883 -0.0596155 -0.0673449)
(0.0449087 -0.058198 -0.0656733)
(0.0499581 -0.0566135 -0.0638089)
(0.0548195 -0.0548705 -0.0617621)
(0.0594756 -0.0529793 -0.0595449)
(0.0639038 -0.050958 -0.0571723)
(-0.0658136 -0.0463522 -0.0587893)
(-0.0613065 -0.0482432 -0.0613859)
(-0.0565567 -0.0500128 -0.0638147)
(-0.0515842 -0.0516443 -0.0660606)
(-0.046406 -0.0531281 -0.0681099)
(-0.0410398 -0.0544563 -0.06995)
(-0.0355048 -0.0556221 -0.0715695)
(-0.0298218 -0.0566194 -0.0729581)
(-0.0240128 -0.0574429 -0.0741072)
(-0.0181012 -0.0580883 -0.0750093)
(-0.0121115 -0.0585519 -0.0756586)
(-0.00606902 -0.0588312 -0.0760508)
(0 -0.0589245 -0.0761822)
(0.00606902 -0.0588312 -0.0760508)
(0.0121115 -0.0585519 -0.0756586)
(0.0181012 -0.0580883 -0.0750093)
(0.0240128 -0.0574429 -0.0741072)
(0.0298218 -0.0566194 -0.0729581)
(0.0355048 -0.0556221 -0.0715695)
(0.0410398 -0.0544563 -0.06995)
(0.046406 -0.0531281 -0.0681099)
(0.0515842 -0.0516443 -0.0660606)
(0.0565567 -0.0500128 -0.0638147)
(0.0613065 -0.0482432 -0.0613859)
(0.0658136 -0.0463522 -0.0587893)
(-0.0675508 -0.0415936 -0.0602548)
(-0.062975 -0.0433323 -0.0630589)
(-0.0581418 -0.04496 -0.0656849)
(-0.0530692 -0.0464619 -0.0681162)
(-0.0477743 -0.0478288 -0.0703374)
(-0.0422757 -0.0490532 -0.0723342)
(-0.0365936 -0.0501288 -0.0740933)
(-0.0307504 -0.0510495 -0.0756031)
(-0.0247698 -0.0518102 -0.0768532)
(-0.0186773 -0.0524066 -0.0778352)
(-0.0124996 -0.052835 -0.0785423)
(-0.00626429 -0.0530929 -0.0789696)
(0 -0.053179 -0.0791128)
(0.00626429 -0.0530929 -0.0789696)
(0.0124996 -0.052835 -0.0785423)
(0.0186773 -0.0524066 -0.0778352)
(0.0247698 -0.0518102 -0.0768532)
(0.0307504 -0.0510495 -0.0756031)
(0.0365936 -0.0501288 -0.0740933)
(0.0422757 -0.0490532 -0.0723342)
(0.0477743 -0.0478288 -0.0703374)
(0.0530692 -0.0464619 -0.0681162)
(0.0581418 -0.04496 -0.0656849)
(0.062975 -0.0433323 -0.0630589)
(0.0675508 -0.0415936 -0.0602548)
(-0.0691063 -0.0366988 -0.0615609)
(-0.0644713 -0.0382646 -0.0645544)
(-0.0595647 -0.0397318 -0.0673605)
(-0.0544032 -0.0410869 -0.0699613)
(-0.0490043 -0.0423214 -0.0723397)
(-0.0433873 -0.0434283 -0.0744796)
(-0.0375734 -0.0444014 -0.0763663)
(-0.0315863 -0.045235 -0.0779867)
(-0.0254515 -0.0459242 -0.0793292)
(-0.0191963 -0.0464646 -0.0803842)
(-0.0128492 -0.0468529 -0.081144)
(-0.00644022 -0.0470865 -0.0816031)
(0 -0.0471644 -0.0817569)
(0.00644022 -0.0470865 -0.0816031)
(0.0128492 -0.0468529 -0.081144)
(0.0191963 -0.0464646 -0.0803842)
(0.0254515 -0.0459242 -0.0793292)
(0.0315863 -0.045235 -0.0779867)
(0.0375734 -0.0444014 -0.0763663)
(0.0433873 -0.0434283 -0.0744796)
(0.0490043 -0.0423214 -0.0723397)
(0.0544032 -0.0410869 -0.0699613)
(0.0595647 -0.0397318 -0.0673605)
(0.0644713 -0.0382646 -0.0645544)
(0.0691063 -0.0366988 -0.0615609)
(-0.0704723 -0.0316836 -0.0627022)
(-0.0657867 -0.0330586 -0.0658645)
(-0.0608165 -0.0343484 -0.0688313)
(-0.0555777 -0.035541 -0.0715835)
(-0.0500879 -0.0366287 -0.0741024)
(-0.0443669 -0.037605 -0.0763704)
(-0.0384372 -0.038464 -0.0783714)
(-0.0323235 -0.0392004 -0.0800907)
(-0.0260529 -0.0398096 -0.0815159)
(-0.0196541 -0.0402874 -0.0826362)
(-0.0131578 -0.0406308 -0.0834432)
(-0.00659548 -0.0408372 -0.0839307)
(0 -0.040906 -0.084094)
(0.00659548 -0.0408372 -0.0839307)
(0.0131578 -0.0406308 -0.0834432)
(0.0196541 -0.0402874 -0.0826362)
(0.0260529 -0.0398096 -0.0815159)
(0.0323235 -0.0392004 -0.0800907)
(0.0384372 -0.038464 -0.0783714)
(0.0443669 -0.037605 -0.0763704)
(0.0500879 -0.0366287 -0.0741024)
(0.0555777 -0.035541 -0.0715835)
(0.0608165 -0.0343484 -0.0688313)
(0.0657867 -0.0330586 -0.0658645)
(0.0704723 -0.0316836 -0.0627022)
(-0.0716413 -0.0265644 -0.0636742)
(-0.0669134 -0.0277331 -0.0669826)
(-0.0618895 -0.0288309 -0.070089)
(-0.056585 -0.0298471 -0.0729727)
(-0.0510176 -0.030775 -0.0756138)
(-0.0452079 -0.0316087 -0.0779932)
(-0.0391789 -0.0323428 -0.0800935)
(-0.0329567 -0.0329726 -0.0818992)
(-0.0265695 -0.0334938 -0.0833963)
(-0.0200476 -0.0339029 -0.0845735)
(-0.0134229 -0.0341967 -0.0854216)
(-0.00672893 -0.0343733 -0.0859337)
(0 -0.0344321 -0.0861052)
(0.00672893 -0.0343733 -0.0859337)
(0.0134229 -0.0341967 -0.0854216)
(0.0200476 -0.0339029 -0.0845735)
(0.0265695 -0.0334938 -0.0833963)
(0.0329567 -0.0329726 -0.0818992)
(0.0391789 -0.0323428 -0.0800935)
(0.0452079 -0.0316087 -0.0779932)
(0.0510176 -0.030775 -0.0756138)
(0.056585 -0.0298471 -0.0729727)
(0.0618895 -0.0288309 -0.070089)
(0.0669134 -0.0277331 -0.0669826)
(0.0716413 -0.0265644 -0.0636742)
(-0.072607 -0.0213579 -0.0644736)
(-0.0678448 -0.0223076 -0.0679037)
(-0.062777 -0.0232008 -0.0711266)
(-0.0574185 -0.0240287 -0.0741203)
(-0.0517873 -0.0247855 -0.0768636)
(-0.0459043 -0.0254659 -0.0793364)
(-0.0397934 -0.0260656 -0.0815201)
(-0.0334814 -0.0265804 -0.0833981)
(-0.0269977 -0.0270067 -0.0849557)
(-0.0203737 -0.0273412 -0.0861807)
(-0.0136427 -0.0275816 -0.0870631)
(-0.00683955 -0.027726 -0.0875959)
(0 -0.027774 -0.0877742)
(0.00683955 -0.027726 -0.0875959)
(0.0136427 -0.0275816 -0.0870631)
(0.0203737 -0.0273412 -0.0861807)
(0.0269977 -0.0270067 -0.0849557)
(0.0334814 -0.0265804 -0.0833981)
(0.0397934 -0.0260656 -0.0815201)
(0.0459043 -0.0254659 -0.0793364)
(0.0517873 -0.0247855 -0.0768636)
(0.0574185 -0.0240287 -0.0741203)
(0.062777 -0.0232008 -0.0711266)
(0.0678448 -0.0223076 -0.0679037)
(0.072607 -0.0213579 -0.0644736)
(-0.0733639 -0.0160811 -0.0650976)
(-0.0685752 -0.0168017 -0.0686238)
(-0.0634733 -0.0174803 -0.0719388)
(-0.0580728 -0.01811 -0.0750195)
(-0.0523917 -0.0186861 -0.0778439)
(-0.0464513 -0.0192046 -0.0803907)
(-0.0402761 -0.0196618 -0.0826406)
(-0.0338937 -0.0200545 -0.0845761)
(-0.0273342 -0.0203798 -0.0861817)
(-0.02063 -0.0206351 -0.0874445)
(-0.0138155 -0.0208186 -0.0883543)
(-0.00692651 -0.0209287 -0.0889035)
(0 -0.0209653 -0.0890871)
(0.00692651 -0.0209287 -0.0889035)
(0.0138155 -0.0208186 -0.0883543)
(0.02063 -0.0206351 -0.0874445)
(0.0273342 -0.0203798 -0.0861817)
(0.0338937 -0.0200545 -0.0845761)
(0.0402761 -0.0196618 -0.0826406)
(0.0464513 -0.0192046 -0.0803907)
(0.0523917 -0.0186861 -0.0778439)
(0.0580728 -0.01811 -0.0750195)
(0.0634733 -0.0174803 -0.0719388)
(0.0685752 -0.0168017 -0.0686238)
(0.0733639 -0.0160811 -0.0650976)
(-0.0739079 -0.010751 -0.0655442)
(-0.0691004 -0.0112351 -0.0691399)
(-0.0639742 -0.0116916 -0.0725215)
(-0.0585436 -0.0121156 -0.0756653)