/*--------------------------------*- C++ -*----------------------------------*\
  =========                 |
  \\      /  F ield         | OpenFOAM: The Open Source CFD Toolbox
   \\    /   O peration     | Website:  https://openfoam.org
    \\  /    A nd           | Version:  13
     \\/     M anipulation  |
\*---------------------------------------------------------------------------*/
FoamFile
{
    format      ascii;
    class       volScalarField;
    location    "0";
    object      Ccx;
}
// * * * * * * * * * * * * * * * * * * * * * * * * * * * * * * * * * * * * * //

dimensions      [0 1 0 0 0 0 0];

internalField   nonuniform List<scalar> 
15625
(
-0.0576813
-0.0535563
-0.0492118
-0.0447131
-0.0400815
-0.0353325
-0.0304803
-0.025539
-0.0205228
-0.0154464
-0.0103244
-0.00517122
0
0.00517122
0.0103244
0.0154464
0.0205228
0.025539
0.0304803
0.0353325
0.0400815
0.0447131
0.0492118
0.0535563
0.0576813
-0.0596052
-0.0553818
-0.0509436
-0.0463358
-0.0415776
-0.0366846
-0.0316723
-0.0265561
-0.0213525
-0.0160779
-0.0107494
-0.00538424
0
0.00538424
0.0107494
0.0160779
0.0213525
0.0265561
0.0316723
0.0366846
0.0415776
0.0463358
0.0509436
0.0553818
0.0596052
-0.0614208
-0.0571228
-0.052601
-0.0478923
-0.0430151
-0.0379856
-0.0328204
-0.0275367
-0.0221528
-0.0166874
-0.01116
-0.00559063
0
0.00559063
0.01116
0.0166874
0.0221528
0.0275367
0.0328204
0.0379856
0.0430151
0.0478923
0.052601
0.0571228
0.0614208
-0.0630925
-0.058732
-0.054136
-0.049336
-0.04435
-0.0391948
-0.0338884
-0.0284495
-0.0228981
-0.0172552
-0.0115427
-0.00578321
0
0.00578321
0.0115427
0.0172552
0.0228981
0.0284495
0.0338884
0.0391948
0.04435
0.049336
0.054136
0.058732
0.0630925
-0.0646089
-0.0601952
-0.0555338
-0.0506522
-0.0455681
-0.0402992
-0.0348644
-0.029284
-0.0235798
-0.0177748
-0.0118931
-0.00595959
0
0.00595959
0.0118931
0.0177748
0.0235798
0.029284
0.0348644
0.0402992
0.0455681
0.0506522
0.0555338
0.0601952
0.0646089
-0.0659627
-0.0615037
-0.0567854
-0.0518319
-0.0466609
-0.0412906
-0.0357411
-0.030034
-0.0241927
-0.0182421
-0.0122083
-0.00611828
0
0.00611828
0.0122083
0.0182421
0.0241927
0.030034
0.0357411
0.0412906
0.0466609
0.0518319
0.0567854
0.0615037
0.0659627
-0.0671479
-0.0626508
-0.0578837
-0.052868
-0.0476213
-0.0421625
-0.0365125
-0.0306941
-0.0247324
-0.0186537
-0.0124859
-0.00625811
0
0.00625811
0.0124859
0.0186537
0.0247324
0.0306941
0.0365125
0.0421625
0.0476213
0.052868
0.0578837
0.0626508
0.0671479
-0.0681596
-0.0636308
-0.0588228
-0.0537547
-0.0484437
-0.0429095
-0.0371736
-0.0312602
-0.0251953
-0.0190068
-0.0127242
-0.0063781
0
0.0063781
0.0127242
0.0190068
0.0251953
0.0312602
0.0371736
0.0429095
0.0484437
0.0537547
0.0588228
0.0636308
0.0681596
-0.0689933
-0.064439
-0.0595979
-0.0544868
-0.0491232
-0.043527
-0.0377204
-0.0317285
-0.0255783
-0.019299
-0.0129214
-0.00647742
0
0.00647742
0.0129214
0.019299
0.0255783
0.0317285
0.0377204
0.043527
0.0491232
0.0544868
0.0595979
0.064439
0.0689933
-0.0696455
-0.0650716
-0.0602048
-0.0550605
-0.0496559
-0.0440112
-0.0381493
-0.0320959
-0.0258789
-0.0195284
-0.0130762
-0.00655541
0
0.00655541
0.0130762
0.0195284
0.0258789
0.0320959
0.0381493
0.0440112
0.0496559
0.0550605
0.0602048
0.0650716
0.0696455
-0.0701132
-0.0655253
-0.0606405
-0.0554725
-0.0500387
-0.0443593
-0.0384577
-0.0323601
-0.0260951
-0.0196934
-0.0131876
-0.00661151
0
0.00661151
0.0131876
0.0196934
0.0260951
0.0323601
0.0384577
0.0443593
0.0500387
0.0554725
0.0606405
0.0655253
0.0701132
-0.070394
-0.0657983
-0.0609028
-0.0557208
-0.0502694
-0.0445691
-0.0386437
-0.0325195
-0.0262255
-0.0197929
-0.0132548
-0.00664535
0
0.00664535
0.0132548
0.0197929
0.0262255
0.0325195
0.0386437
0.0445691
0.0502694
0.0557208
0.0609028
0.0657983
0.070394
-0.0704875
-0.0658894
-0.0609905
-0.0558038
-0.0503465
-0.0446393
-0.0387058
-0.0325728
-0.0262691
-0.0198262
-0.0132772
-0.00665666
0
0.00665666
0.0132772
0.0198262
0.0262691
0.0325728
0.0387058
0.0446393
0.0503465
0.0558038
0.0609905
0.0658894
0.0704875
-0.070394
-0.0657983
-0.0609028
-0.0557208
-0.0502694
-0.0445691
-0.0386437
-0.0325195
-0.0262255
-0.0197929
-0.0132548
-0.00664535
0
0.00664535
0.0132548
0.0197929
0.0262255
0.0325195
0.0386437
0.0445691
0.0502694
0.0557208
0.0609028
0.0657983
0.070394
-0.0701132
-0.0655253
-0.0606405
-0.0554725
-0.0500387
-0.0443593
-0.0384577
-0.0323601
-0.0260951
-0.0196934
-0.0131876
-0.00661151
0
0.00661151
0.0131876
0.0196934
0.0260951
0.0323601
0.0384577
0.0443593
0.0500387
0.0554725
0.0606405
0.0655253
0.0701132
-0.0696455
-0.0650716
-0.0602048
-0.0550605
-0.0496559
-0.0440112
-0.0381493
-0.0320959
-0.0258789
-0.0195284
-0.0130762
-0.00655541
0
0.00655541
0.0130762
0.0195284
0.0258789
0.0320959
0.0381493
0.0440112
0.0496559
0.0550605
0.0602048
0.0650716
0.0696455
-0.0689933
-0.064439
-0.0595979
-0.0544868
-0.0491232
-0.043527
-0.0377204
-0.0317285
-0.0255783
-0.019299
-0.0129214
-0.00647742
0
0.00647742
0.0129214
0.019299
0.0255783
0.0317285
0.0377204
0.043527
0.0491232
0.0544868
0.0595979
0.064439
0.0689933
-0.0681596
-0.0636308
-0.0588228
-0.0537547
-0.0484437
-0.0429095
-0.0371736
-0.0312602
-0.0251953
-0.0190068
-0.0127242
-0.0063781
0
0.0063781
0.0127242
0.0190068
0.0251953
0.0312602
0.0371736
0.0429095
0.0484437
0.0537547
0.0588228
0.0636308
0.0681596
-0.0671479
-0.0626508
-0.0578837
-0.052868
-0.0476213
-0.0421625
-0.0365125
-0.0306941
-0.0247324
-0.0186537
-0.0124859
-0.00625811
0
0.00625811
0.0124859
0.0186537
0.0247324
0.0306941
0.0365125
0.0421625
0.0476213
0.052868
0.0578837
0.0626508
0.0671479
-0.0659627
-0.0615037
-0.0567854
-0.0518319
-0.0466609
-0.0412906
-0.0357411
-0.030034
-0.0241927
-0.0182421
-0.0122083
-0.00611828
0
0.00611828
0.0122083
0.0182421
0.0241927
0.030034
0.0357411
0.0412906
0.0466609
0.0518319
0.0567854
0.0615037
0.0659627
-0.0646089
-0.0601952
-0.0555338
-0.0506522
-0.0455681
-0.0402992
-0.0348644
-0.029284
-0.0235798
-0.0177748
-0.0118931
-0.00595959
0
0.00595959
0.0118931
0.0177748
0.0235798
0.029284
0.0348644
0.0402992
0.0455681
0.0506522
0.0555338
0.0601952
0.0646089
-0.0630925
-0.058732
-0.054136
-0.049336
-0.04435
-0.0391948
-0.0338884
-0.0284495
-0.0228981
-0.0172552
-0.0115427
-0.00578321
0
0.00578321
0.0115427
0.0172552
0.0228981
0.0284495
0.0338884
0.0391948
0.04435
0.049336
0.054136
0.058732
0.0630925
-0.0614208
-0.0571228
-0.052601
-0.0478923
-0.0430151
-0.0379856
-0.0328204
-0.0275367
-0.0221528
-0.0166874
-0.01116
-0.00559063
0
0.00559063
0.01116
0.0166874
0.0221528
0.0275367
0.0328204
0.0379856
0.0430151
0.0478923
0.052601
0.0571228
0.0614208
-0.0596052
-0.0553818
-0.0509436
-0.0463358
-0.0415776
-0.0366846
-0.0316723
-0.0265561
-0.0213525
-0.0160779
-0.0107494
-0.00538424
0
0.00538424
0.0107494
0.0160779
0.0213525
0.0265561
0.0316723
0.0366846
0.0415776
0.0463358
0.0509436
0.0553818
0.0596052
-0.0576813
-0.0535563
-0.0492118
-0.0447131
-0.0400815
-0.0353325
-0.0304803
-0.025539
-0.0205228
-0.0154464
-0.0103244
-0.00517122
0
0.00517122
0.0103244
0.0154464
0.0205228
0.025539
0.0304803
0.0353325
0.0400815
0.0447131
0.0492118
0.0535563
0.0576813
-0.0596044
-0.055382
-0.050944
-0.0463363
-0.0415781
-0.0366851
-0.0316727
-0.0265565
-0.0213528
-0.0160781
-0.0107496
-0.00538433
0
0.00538433
0.0107496
0.0160781
0.0213528
0.0265565
0.0316727
0.0366851
0.0415781
0.0463363
0.050944
0.055382
0.0596044
-0.0618306
-0.0574943
-0.0529422
-0.0482028
-0.0432939
-0.0382317
-0.0330329
-0.027715
-0.0222961
-0.0167953
-0.0112321
-0.00562678
0
0.00562678
0.0112321
0.0167953
0.0222961
0.027715
0.0330329
0.0382317
0.0432939
0.0482028
0.0529422
0.0574943
0.0618306
-0.0639038
-0.0594756
-0.0548195
-0.0499581
-0.0449087
-0.0396883
-0.0343148
-0.0288073
-0.023186
-0.0174721
-0.0116878
-0.00585591
0
0.00585591
0.0116878
0.0174721
0.023186
0.0288073
0.0343148
0.0396883
0.0449087
0.0499581
0.0548195
0.0594756
0.0639038
-0.0658136
-0.0613065
-0.0565567
-0.0515842
-0.046406
-0.0410398
-0.0355048
-0.0298218
-0.0240128
-0.0181012
-0.0121115
-0.00606902
0
0.00606902
0.0121115
0.0181012
0.0240128
0.0298218
0.0355048
0.0410398
0.046406
0.0515842
0.0565567
0.0613065
0.0658136
-0.0675508
-0.062975
-0.0581418
-0.0530692
-0.0477743
-0.0422757
-0.0365936
-0.0307504
-0.0247698
-0.0186773
-0.0124996
-0.00626429
0
0.00626429
0.0124996
0.0186773
0.0247698
0.0307504
0.0365936
0.0422757
0.0477743
0.0530692
0.0581418
0.062975
0.0675508
-0.0691063
-0.0644713
-0.0595647
-0.0544032
-0.0490043
-0.0433873
-0.0375734
-0.0315863
-0.0254515
-0.0191963
-0.0128492
-0.00644022
0
0.00644022
0.0128492
0.0191963
0.0254515
0.0315863
0.0375734
0.0433873
0.0490043
0.0544032
0.0595647
0.0644713
0.0691063
-0.0704723
-0.0657867
-0.0608165
-0.0555777
-0.0500879
-0.0443669
-0.0384372
-0.0323235
-0.0260529
-0.0196541
-0.0131578
-0.00659548
0
0.00659548
0.0131578
0.0196541
0.0260529
0.0323235
0.0384372
0.0443669
0.0500879
0.0555777
0.0608165
0.0657867
0.0704723
-0.0716413
-0.0669134
-0.0618895
-0.056585
-0.0510176
-0.0452079
-0.0391789
-0.0329567
-0.0265695
-0.0200476
-0.0134229
-0.00672893
0
0.00672893
0.0134229
0.0200476
0.0265695
0.0329567
0.0391789
0.0452079
0.0510176
0.056585
0.0618895
0.0669134
0.0716413
-0.072607
-0.0678448
-0.062777
-0.0574185
-0.0517873
-0.0459043
-0.0397934
-0.0334814
-0.0269977
-0.0203737
-0.0136427
-0.00683955
0
0.00683955
0.0136427
0.0203737
0.0269977
0.0334814
0.0397934
0.0459043
0.0517873
0.0574185
0.062777
0.0678448
0.072607
-0.0733639
-0.0685752
-0.0634733
-0.0580728
-0.0523917
-0.0464513
-0.0402761
-0.0338937
-0.0273342
-0.02063
-0.0138155
-0.00692651
0
0.00692651
0.0138155
0.02063
0.0273342
0.0338937
0.0402761
0.0464513
0.0523917
0.0580728
0.0634733
0.0685752
0.0733639
-0.0739079
-0.0691004
-0.0639742
-0.0585436
-0.0528267
-0.046845
-0.0406237
-0.0341906
-0.0275765
-0.0208146
-0.0139399
-0.00698914
0
0.00698914
0.0139399
0.0208146
0.0275765
0.0341906
0.0406237
0.046845
0.0528267
0.0585436
0.0639742
0.0691004
0.0739079
-0.0742359
-0.0694173
-0.0642765
-0.0588278
-0.0530893
-0.0470828
-0.0408336
-0.0343699
-0.0277229
-0.0209261
-0.0140151
-0.00702698
0
0.00702698
0.0140151
0.0209261
0.0277229
0.0343699
0.0408336
0.0470828
0.0530893
0.0588278
0.0642765
0.0694173
0.0742359
-0.0743456
-0.0695233
-0.0643777
-0.0589229
-0.0531772
-0.0471624
-0.0409039
-0.0344299
-0.0277719
-0.0209634
-0.0140402
-0.00703964
0
0.00703964
0.0140402
0.0209634
0.0277719
0.0344299
0.0409039
0.0471624
0.0531772
0.0589229
0.0643777
0.0695233
0.0743456
-0.0742359
-0.0694173
-0.0642765
-0.0588278
-0.0530893
-0.0470828
-0.0408336
-0.0343699
-0.0277229
-0.0209261
-0.0140151
-0.00702698
0
0.00702698
0.0140151
0.0209261
0.0277229
0.0343699
0.0408336
0.0470828
0.0530893
0.0588278
0.0642765
0.0694173
0.0742359
-0.0739079
-0.0691004
-0.0639742
-0.0585436
-0.0528267
-0.046845
-0.0406237
-0.0341906
-0.0275765
-0.0208146
-0.0139399
-0.00698914
0
0.00698914
0.0139399
0.0208146
0.0275765
0.0341906
0.0406237
0.046845
0.0528267
0.0585436
0.0639742
0.0691004
0.0739079
-0.0733639
-0.0685752
-0.0634733
-0.0580728
-0.0523917
-0.0464513
-0.0402761
-0.0338937
-0.0273342
-0.02063
-0.0138155
-0.00692651
0
0.00692651
0.0138155
0.02063
0.0273342
0.0338937
0.0402761
0.0464513
0.0523917
0.0580728
0.0634733
0.0685752
0.0733639
-0.072607
-0.0678448
-0.062777
-0.0574185
-0.0517873
-0.0459043
-0.0397934
-0.0334814
-0.0269977
-0.0203737
-0.0136427
-0.00683955
0
0.00683955
0.0136427
0.0203737
0.0269977
0.0334814
0.0397934
0.0459043
0.0517873
0.0574185
0.062777
0.0678448
0.072607
-0.0716413
-0.0669134
-0.0618895
-0.056585
-0.0510176
-0.0452079
-0.0391789
-0.0329567
-0.0265695
-0.0200476
-0.0134229
-0.00672893
0
0.00672893
0.0134229
0.0200476
0.0265695
0.0329567
0.0391789
0.0452079
0.0510176
0.056585
0.0618895
0.0669134
0.0716413
-0.0704723
-0.0657867
-0.0608165
-0.0555777
-0.0500879
-0.0443669
-0.0384372
-0.0323235
-0.0260529
-0.0196541
-0.0131578
-0.00659548
0
0.00659548
0.0131578
0.0196541
0.0260529
0.0323235
0.0384372
0.0443669
0.0500879
0.0555777
0.0608165
0.0657867
0.0704723
-0.0691063
-0.0644713
-0.0595647
-0.0544032
-0.0490043
-0.0433873
-0.0375734
-0.0315863
-0.0254515
-0.0191963
-0.0128492
-0.00644022
0
0.00644022
0.0128492
0.0191963
0.0254515
0.0315863
0.0375734
0.0433873
0.0490043
0.0544032
0.0595647
0.0644713
0.0691063
-0.0675508
-0.062975
-0.0581418
-0.0530692
-0.0477743
-0.0422757
-0.0365936
-0.0307504
-0.0247698
-0.0186773
-0.0124996
-0.00626429
0
0.00626429
0.0124996
0.0186773
0.0247698
0.0307504
0.0365936
0.0422757
0.0477743
0.0530692
0.0581418
0.062975
0.0675508
-0.0658136
-0.0613065
-0.0565567
-0.0515842
-0.046406
-0.0410398
-0.0355048
-0.0298218
-0.0240128
-0.0181012
-0.0121115
-0.00606902
0
0.00606902
0.0121115
0.0181012
0.0240128
0.0298218
0.0355048
0.0410398
0.046406
0.0515842
0.0565567
0.0613065
0.0658136
-0.0639038
-0.0594756
-0.0548195
-0.0499581
-0.0449087
-0.0396883
-0.0343148
-0.0288073
-0.023186
-0.0174721
-0.0116878
-0.00585591
0
0.00585591
0.0116878
0.0174721
0.023186
0.0288073
0.0343148
0.0396883
0.0449087
0.0499581
0.0548195
0.0594756
0.0639038
-0.0618306
-0.0574943
-0.0529422
-0.0482028
-0.0432939
-0.0382317
-0.0330329
-0.027715
-0.0222961
-0.0167953
-0.0112321
-0.00562678
0
0.00562678
0.0112321
0.0167953
0.0222961
0.027715
0.0330329
0.0382317
0.0432939
0.0482028
0.0529422
0.0574943
0.0618306
-0.0596044
-0.055382
-0.050944
-0.0463363
-0.0415781
-0.0366851
-0.0316727
-0.0265565
-0.0213528
-0.0160781
-0.0107496
-0.00538433
0
0.00538433
0.0107496
0.0160781
0.0213528
0.0265565
0.0316727
0.0366851
0.0415781
0.0463363
0.050944
0.055382
0.0596044
-0.0614221
-0.0571248
-0.0526031
-0.0478943
-0.0430169
-0.0379873
-0.0328218
-0.027538
-0.0221538
-0.0166881
-0.0111605
-0.00559088
0
0.00559088
0.0111605
0.0166881
0.0221538
0.027538
0.0328218
0.0379873
0.0430169
0.0478943
0.0526031
0.0571248
0.0614221
-0.0639077
-0.0594793
-0.0548229
-0.0499612
-0.0449115
-0.0396908
-0.0343169
-0.0288091
-0.0231874
-0.0174732
-0.0116885
-0.00585626
0
0.00585626
0.0116885
0.0174732
0.0231874
0.0288091
0.0343169
0.0396908
0.0449115
0.0499612
0.0548229
0.0594793
0.0639077
-0.0662227
-0.0616852
-0.0569054
-0.0519018
-0.0466914
-0.0412921
-0.035723
-0.030005
-0.0241603
-0.0182123
-0.0121858
-0.00610628
0
0.00610628
0.0121858
0.0182123
0.0241603
0.030005
0.035723
0.0412921
0.0466914
0.0519018
0.0569054
0.0616852
0.0662227
-0.0683603
-0.063727
-0.058835
-0.0537013
-0.048343
-0.0427788
-0.037029
-0.0311162
-0.0250645
-0.0188996
-0.0126483
-0.00633884
0
0.00633884
0.0126483
0.0188996
0.0250645
0.0311162
0.037029
0.0427788
0.048343
0.0537013
0.058835
0.063727
0.0683603
-0.0703094
-0.0655914
-0.0605986
-0.0553473
-0.0498546
-0.0441401
-0.0382254
-0.0321345
-0.0258934
-0.0195296
-0.0130724
-0.00655211
0
0.00655211
0.0130724
0.0195296
0.0258934
0.0321345
0.0382254
0.0441401
0.0498546
0.0553473
0.0605986
0.0655914
0.0703094
-0.0720588
-0.0672666
-0.0621846
-0.0568283
-0.0512154
-0.0453661
-0.0393033
-0.0330523
-0.0266406
-0.0200977
-0.0134548
-0.00674444
0
0.00674444
0.0134548
0.0200977
0.0266406
0.0330523
0.0393033
0.0453661
0.0512154
0.0568283
0.0621846
0.0672666
0.0720588
-0.073598
-0.0687419
-0.0635822
-0.0581341
-0.0524158
-0.0464481
-0.0402549
-0.0338626
-0.0273005
-0.0205995
-0.0137927
-0.00691436
0
0.00691436
0.0137927
0.0205995
0.0273005
0.0338626
0.0402549
0.0464481
0.0524158
0.0581341
0.0635822
0.0687419
0.073598
-0.0749176
-0.0700075
-0.0647818
-0.0592556
-0.0534471
-0.0473779
-0.0410728
-0.0345594
-0.027868
-0.0210311
-0.0140833
-0.00706052
0
0.00706052
0.0140833
0.0210311
0.027868
0.0345594
0.0410728
0.0473779
0.0534471
0.0592556
0.0647818
0.0700075
0.0749176
-0.0760093
-0.0710552
-0.0657753
-0.0601846
-0.0543017
-0.0481487
-0.0417511
-0.0351373
-0.0283387
-0.0213891
-0.0143243
-0.00718179
0
0.00718179
0.0143243
0.0213891
0.0283387
0.0351373
0.0417511
0.0481487
0.0543017
0.0601846
0.0657753
0.0710552
0.0760093
-0.0768662
-0.0718779
-0.0665557
-0.0609146
-0.0549735
-0.0487547
-0.0422844
-0.0355917
-0.0287089
-0.0216707
-0.014514
-0.00727718
0
0.00727718
0.014514
0.0216707
0.0287089
0.0355917
0.0422844
0.0487547
0.0549735
0.0609146
0.0665557
0.0718779
0.0768662
-0.0774829
-0.0724701
-0.0671177
-0.0614404
-0.0554574
-0.0491913
-0.0426686
-0.0359192
-0.0289757
-0.0218737
-0.0146507
-0.00734594
0
0.00734594
0.0146507
0.0218737
0.0289757
0.0359192
0.0426686
0.0491913
0.0554574
0.0614404
0.0671177
0.0724701
0.0774829
-0.0778553
-0.0728279
-0.0674572
-0.0617581
-0.0557498
-0.0494551
-0.0429009
-0.0361171
-0.029137
-0.0219964
-0.0147333
-0.0073875
0
0.0073875
0.0147333
0.0219964
0.029137
0.0361171
0.0429009
0.0494551
0.0557498
0.0617581
0.0674572
0.0728279
0.0778553
-0.0779801
-0.0729478
-0.067571
-0.0618646
-0.0558478
-0.0495435
-0.0429787
-0.0361834
-0.029191
-0.0220375
-0.0147609
-0.00740142
0
0.00740142
0.0147609
0.0220375
0.029191
0.0361834
0.0429787
0.0495435
0.0558478
0.0618646
0.067571
0.0729478
0.0779801
-0.0778553
-0.0728279
-0.0674572
-0.0617581
-0.0557498
-0.0494551
-0.0429009
-0.0361171
-0.029137
-0.0219964
-0.0147333
-0.0073875
0
0.0073875
0.0147333
0.0219964
0.029137
0.0361171
0.0429009
0.0494551
0.0557498
0.0617581
0.0674572
0.0728279
0.0778553
-0.0774829
-0.0724701
-0.0671177
-0.0614404
-0.0554574
-0.0491913
-0.0426686
-0.0359192
-0.0289757
-0.0218737
-0.0146507
-0.00734594
0
0.00734594
0.0146507
0.0218737
0.0289757
0.0359192
0.0426686
0.0491913
0.0554574
0.0614404
0.0671177
0.0724701
0.0774829
-0.0768662
-0.0718779
-0.0665557
-0.0609146
-0.0549735
-0.0487547
-0.0422844
-0.0355917
-0.0287089
-0.0216707
-0.014514
-0.00727718
0
0.00727718
0.014514
0.0216707
0.0287089
0.0355917
0.0422844
0.0487547
0.0549735
0.0609146
0.0665557
0.0718779
0.0768662
-0.0760093
-0.0710552
-0.0657753
-0.0601846
-0.0543017
-0.0481487
-0.0417511
-0.0351373
-0.0283387
-0.0213891
-0.0143243
-0.00718179
0
0.00718179
0.0143243
0.0213891
0.0283387
0.0351373
0.0417511
0.0481487
0.0543017
0.0601846
0.0657753
0.0710552
0.0760093
-0.0749176
-0.0700075
-0.0647818
-0.0592556
-0.0534471
-0.0473779
-0.0410728
-0.0345594
-0.027868
-0.0210311
-0.0140833
-0.00706052
0
0.00706052
0.0140833
0.0210311
0.027868
0.0345594
0.0410728
0.0473779
0.0534471
0.0592556
0.0647818
0.0700075
0.0749176
-0.073598
-0.0687419
-0.0635822
-0.0581341
-0.0524158
-0.0464481
-0.0402549
-0.0338626
-0.0273005
-0.0205995
-0.0137927
-0.00691436
0
0.00691436
0.0137927
0.0205995
0.0273005
0.0338626
0.0402549
0.0464481
0.0524158
0.0581341
0.0635822
0.0687419
0.073598
-0.0720588
-0.0672666
-0.0621846
-0.0568283
-0.0512154
-0.0453661
-0.0393033
-0.0330523
-0.0266406
-0.0200977
-0.0134548
-0.00674444
0
0.00674444
0.0134548
0.0200977
0.0266406
0.0330523
0.0393033
0.0453661
0.0512154
0.0568283
0.0621846
0.0672666
0.0720588
-0.0703094
-0.0655914
-0.0605986
-0.0553473
-0.0498546
-0.0441401
-0.0382254
-0.0321345
-0.0258934
-0.0195296
-0.0130724
-0.00655211
0
0.00655211
0.0130724
0.0195296
0.0258934
0.0321345
0.0382254
0.0441401
0.0498546
0.0553473
0.0605986
0.0655914
0.0703094
-0.0683603
-0.063727
-0.058835
-0.0537013
-0.048343
-0.0427788
-0.037029
-0.0311162
-0.0250645
-0.0188996
-0.0126483
-0.00633884
0
0.00633884
0.0126483
0.0188996
0.0250645
0.0311162
0.037029
0.0427788
0.048343
0.0537013
0.058835
0.063727
0.0683603
-0.0662227
-0.0616852
-0.0569054
-0.0519018
-0.0466914
-0.0412921
-0.035723
-0.030005
-0.0241603
-0.0182123
-0.0121858
-0.00610628
0
0.00610628
0.0121858
0.0182123
0.0241603
0.030005
0.035723
0.0412921
0.0466914
0.0519018
0.0569054
0.0616852
0.0662227
-0.0639077
-0.0594793
-0.0548229
-0.0499612
-0.0449115
-0.0396908
-0.0343169
-0.0288091
-0.0231874
-0.0174732
-0.0116885
-0.00585626
0
0.00585626
0.0116885
0.0174732
0.0231874
0.0288091
0.0343169
0.0396908
0.0449115
0.0499612
0.0548229
0.0594793
0.0639077
-0.0614221
-0.0571248
-0.0526031
-0.0478943
-0.0430169
-0.0379873
-0.0328218
-0.027538
-0.0221538
-0.0166881
-0.0111605
-0.00559088
0
0.00559088
0.0111605
0.0166881
0.0221538
0.027538
0.0328218
0.0379873
0.0430169
0.0478943
0.0526031
0.0571248
0.0614221
-0.0630965
-0.0587363
-0.0541401
-0.0493398
-0.0443533
-0.0391978
-0.033891
-0.0284516
-0.0228998
-0.0172565
-0.0115436
-0.00578364
0
0.00578364
0.0115436
0.0172565
0.0228998
0.0284516
0.033891
0.0391978
0.0443533
0.0493398
0.0541401
0.0587363
0.0630965
-0.0658228
-0.061315
-0.0565645
-0.0515913
-0.0464123
-0.0410453
-0.0355096
-0.0298258
-0.024016
-0.0181036
-0.012113
-0.00606981
0
0.00606981
0.012113
0.0181036
0.024016
0.0298258
0.0355096
0.0410453
0.0464123
0.0515913
0.0565645
0.061315
0.0658228
-0.0683667
-0.0637328
-0.0588403
-0.0537061
-0.0483473
-0.0427825
-0.0370322
-0.0311189
-0.0250667
-0.0189012
-0.0126494
-0.00633938
0
0.00633938
0.0126494
0.0189012
0.0250667
0.0311189
0.0370322
0.0427825
0.0483473
0.0537061
0.0588403
0.0637328
0.0683667
-0.0707201
-0.0659738
-0.0609516
-0.0556694
-0.0501446
-0.0443968
-0.0384477
-0.0323215
-0.026044
-0.0196433
-0.0131485
-0.00659024
0
0.00659024
0.0131485
0.0196433
0.026044
0.0323215
0.0384477
0.0443968
0.0501446
0.0556694
0.0609516
0.0659738
0.0707201
-0.0728698
-0.0680231
-0.0628837
-0.0574672
-0.0517913
-0.0458764
-0.0397456
-0.0334244
-0.0269406
-0.0203241
-0.0136065
-0.00682047
0
0.00682047
0.0136065
0.0203241
0.0269406
0.0334244
0.0397456
0.0458764
0.0517913
0.0574672
0.0628837
0.0680231
0.0728698
-0.0748023
-0.0698669
-0.0646233
-0.0590867
-0.0532753
-0.0472103
-0.040916
-0.0344192
-0.0277495
-0.0209385
-0.0140198
-0.00702824
0
0.00702824
0.0140198
0.0209385
0.0277495
0.0344192
0.040916
0.0472103
0.0532753
0.0590867
0.0646233
0.0698669
0.0748023
-0.0765049
-0.0714926
-0.0661579
-0.0605159
-0.0545855
-0.0483884
-0.04195
-0.0352983
-0.0284644
-0.0214816
-0.0143851
-0.00721192
0
0.00721192
0.0143851
0.0214816
0.0284644
0.0352983
0.04195
0.0483884
0.0545855
0.0605159
0.0661579
0.0714926
0.0765049
-0.0779664
-0.0728888
-0.0674763
-0.0617444
-0.055712
-0.0494016
-0.0428394
-0.0360547
-0.0290796
-0.0219489
-0.0146996
-0.00737002
0
0.00737002
0.0146996
0.0219489
0.0290796
0.0360547
0.0428394
0.0494016
0.055712
0.0617444
0.0674763
0.0728888
0.0779664
-0.0791766
-0.0740455
-0.0685691
-0.0627629
-0.0566462
-0.0502421
-0.0435774
-0.0366823
-0.0295901
-0.0223368
-0.0149606
-0.00750124
0
0.00750124
0.0149606
0.0223368
0.0295901
0.0366823
0.0435774
0.0502421
0.0566462
0.0627629
0.0685691
0.0740455
0.0791766
-0.0801274
-0.0749545
-0.0694281
-0.0635638
-0.0573809
-0.0509032
-0.0441579
-0.0371761
-0.0299919
-0.0226421
-0.015166
-0.00760452
0
0.00760452
0.015166
0.0226421
0.0299919
0.0371761
0.0441579
0.0509032
0.0573809
0.0635638
0.0694281
0.0749545
0.0801274
-0.0808121
-0.0756093
-0.070047
-0.0641408
-0.0579104
-0.0513797
-0.0445764
-0.0375321
-0.0302815
-0.0228622
-0.0153141
-0.00767898
0
0.00767898
0.0153141
0.0228622
0.0302815
0.0375321
0.0445764
0.0513797
0.0579104
0.0641408
0.070047
0.0756093
0.0808121
-0.0812259
-0.0760051
-0.0704212
-0.0644897
-0.0582306
-0.0516678
-0.0448295
-0.0377474
-0.0304567
-0.0229953
-0.0154036
-0.00772401
0
0.00772401
0.0154036
0.0229953
0.0304567
0.0377474
0.0448295
0.0516678
0.0582306
0.0644897
0.0704212
0.0760051
0.0812259
-0.0813647
-0.0761378
-0.0705466
-0.0646066
-0.0583379
-0.0517643
-0.0449143
-0.0378195
-0.0305154
-0.0230399
-0.0154336
-0.0077391
0
0.0077391
0.0154336
0.0230399
0.0305154
0.0378195
0.0449143
0.0517643
0.0583379
0.0646066
0.0705466
0.0761378
0.0813647
-0.0812259
-0.0760051
-0.0704212
-0.0644897
-0.0582306
-0.0516678
-0.0448295
-0.0377474
-0.0304567
-0.0229953
-0.0154036
-0.00772401
0
0.00772401
0.0154036
0.0229953
0.0304567
0.0377474
0.0448295
0.0516678
0.0582306
0.0644897
0.0704212
0.0760051
0.0812259
-0.0808121
-0.0756093
-0.070047
-0.0641408
-0.0579104
-0.0513797
-0.0445764
-0.0375321
-0.0302815
-0.0228622
-0.0153141
-0.00767898
0
0.00767898
0.0153141
0.0228622
0.0302815
0.0375321
0.0445764
0.0513797
0.0579104
0.0641408
0.070047
0.0756093
0.0808121
-0.0801274
-0.0749545
-0.0694281
-0.0635638
-0.0573809
-0.0509032
-0.0441579
-0.0371761
-0.0299919
-0.0226421
-0.015166
-0.00760452
0
0.00760452
0.015166
0.0226421
0.0299919
0.0371761
0.0441579
0.0509032
0.0573809
0.0635638
0.0694281
0.0749545
0.0801274
-0.0791766
-0.0740455
-0.0685691
-0.0627629
-0.0566462
-0.0502421
-0.0435774
-0.0366823
-0.0295901
-0.0223368
-0.0149606
-0.00750124
0
0.00750124
0.0149606
0.0223368
0.0295901
0.0366823
0.0435774
0.0502421
0.0566462
0.0627629
0.0685691
0.0740455
0.0791766
-0.0779664
-0.0728888
-0.0674763
-0.0617444
-0.055712
-0.0494016
-0.0428394
-0.0360547
-0.0290796
-0.0219489
-0.0146996
-0.00737002
0
0.00737002
0.0146996
0.0219489
0.0290796
0.0360547
0.0428394
0.0494016
0.055712
0.0617444
0.0674763
0.0728888
0.0779664
-0.0765049
-0.0714926
-0.0661579
-0.0605159
-0.0545855
-0.0483884
-0.04195
-0.0352983
-0.0284644
-0.0214816
-0.0143851
-0.00721192
0
0.00721192
0.0143851
0.0214816
0.0284644
0.0352983
0.04195
0.0483884
0.0545855
0.0605159
0.0661579
0.0714926
0.0765049
-0.0748023
-0.0698669
-0.0646233
-0.0590867
-0.0532753
-0.0472103
-0.040916
-0.0344192
-0.0277495
-0.0209385
-0.0140198
-0.00702824
0
0.00702824
0.0140198
0.0209385
0.0277495
0.0344192
0.040916
0.0472103
0.0532753
0.0590867
0.0646233
0.0698669
0.0748023
-0.0728698
-0.0680231
-0.0628837
-0.0574672
-0.0517913
-0.0458764
-0.0397456
-0.0334244
-0.0269406
-0.0203241
-0.0136065
-0.00682047
0
0.00682047
0.0136065
0.0203241
0.0269406
0.0334244
0.0397456
0.0458764
0.0517913
0.0574672
0.0628837
0.0680231
0.0728698
-0.0707201
-0.0659738
-0.0609516
-0.0556694
-0.0501446
-0.0443968
-0.0384477
-0.0323215
-0.026044
-0.0196433
-0.0131485
-0.00659024
0
0.00659024
0.0131485
0.0196433
0.026044
0.0323215
0.0384477
0.0443968
0.0501446
0.0556694
0.0609516
0.0659738
0.0707201
-0.0683667
-0.0637328
-0.0588403
-0.0537061
-0.0483473
-0.0427825
-0.0370322
-0.0311189
-0.0250667
-0.0189012
-0.0126494
-0.00633938
0
0.00633938
0.0126494
0.0189012
0.0250667
0.0311189
0.0370322
0.0427825
0.0483473
0.0537061
0.0588403
0.0637328
0.0683667
-0.0658228
-0.061315
-0.0565645
-0.0515913
-0.0464123
-0.0410453
-0.0355096
-0.0298258
-0.024016
-0.0181036
-0.012113
-0.00606981
0
0.00606981
0.012113
0.0181036
0.024016
0.0298258
0.0355096
0.0410453
0.0464123
0.0515913
0.0565645
0.061315
0.0658228
-0.0630965
-0.0587363
-0.0541401
-0.0493398
-0.0443533
-0.0391978
-0.033891
-0.0284516
-0.0228998
-0.0172565
-0.0115436
-0.00578364
0
0.00578364
0.0115436
0.0172565
0.0228998
0.0284516
0.033891
0.0391978
0.0443533
0.0493398
0.0541401
0.0587363
0.0630965
-0.0646153
-0.0602014
-0.0555396
-0.0506575
-0.0455728
-0.0403033
-0.034868
-0.029287
-0.0235822
-0.0177766
-0.0118943
-0.00596018
0
0.00596018
0.0118943
0.0177766
0.0235822
0.029287
0.034868
0.0403033
0.0455728
0.0506575
0.0555396
0.0602014
0.0646153
-0.0675647
-0.0629879
-0.0581535
-0.0530798
-0.0477837
-0.0422839
-0.0366007
-0.0307563
-0.0247746
-0.0186809
-0.0125019
-0.00626547
0
0.00626547
0.0125019
0.0186809
0.0247746
0.0307563
0.0366007
0.0422839
0.0477837
0.0530798
0.0581535
0.0629879
0.0675647
-0.0703219
-0.0656029
-0.0606091
-0.0553567
-0.049863
-0.0441474
-0.0382317
-0.0321398
-0.0258976
-0.0195328
-0.0130745
-0.00655316
0
0.00655316
0.0130745
0.0195328
0.0258976
0.0321398
0.0382317
0.0441474
0.049863
0.0553567
0.0606091
0.0656029
0.0703219
-0.0728767
-0.0680294
-0.0628894
-0.0574724
-0.0517959
-0.0458804
-0.039749
-0.0334272
-0.0269429
-0.0203258
-0.0136076
-0.00682104
0
0.00682104
0.0136076
0.0203258
0.0269429
0.0334272
0.039749
0.0458804
0.0517959
0.0574724
0.0628894
0.0680294
0.0728767
-0.0752133
-0.0702507
-0.0649783
-0.0594114
-0.0535682
-0.04747
-0.0411412
-0.0346088
-0.0279024
-0.0210539
-0.0140971
-0.00706701
0
0.00706701
0.0140971
0.0210539
0.0279024
0.0346088
0.0411412
0.04747
0.0535682
0.0594114
0.0649783
0.0702507
0.0752133
-0.0773161
-0.0722512
-0.0668606
-0.0611594
-0.0551665
-0.0489041
-0.0423975
-0.0356752
-0.0287686
-0.0217113
-0.0145391
-0.00728913
0
0.00728913
0.0145391
0.0217113
0.0287686
0.0356752
0.0423975
0.0489041
0.0551665
0.0611594
0.0668606
0.0722512
0.0773161
-0.0791707
-0.0740166
-0.0685223
-0.0627033
-0.0565787
-0.0501714
-0.043508
-0.0366181
-0.0295345
-0.0222927
-0.0149299
-0.00748557
0
0.00748557
0.0149299
0.0222927
0.0295345
0.0366181
0.043508
0.0501714
0.0565787
0.0627033
0.0685223
0.0740166
0.0791707
-0.0807639
-0.0755338
-0.0699511
-0.0640311
-0.0577935
-0.051262
-0.0444637
-0.0374297
-0.030194
-0.0227932
-0.0152665
-0.00765473
0
0.00765473
0.0152665
0.0227932
0.030194
0.0374297
0.0444637
0.051262
0.0577935
0.0640311
0.0699511
0.0755338
0.0807639
-0.0820842
-0.0767917
-0.0711359
-0.0651325
-0.0588014
-0.0521669
-0.045257
-0.0381035
-0.0307414
-0.0232088
-0.015546
-0.00779519
0
0.00779519
0.015546
0.0232088
0.0307414
0.0381035
0.045257
0.0521669
0.0588014
0.0651325
0.0711359
0.0767917
0.0820842
-0.083122
-0.0777806
-0.0720676
-0.0659988
-0.0595944
-0.052879
-0.0458813
-0.0386338
-0.0311724
-0.0235359
-0.015766
-0.00790576
0
0.00790576
0.015766
0.0235359
0.0311724
0.0386338
0.0458813
0.052879
0.0595944
0.0659988
0.0720676
0.0777806
0.083122
-0.0838697
-0.0784932
-0.0727392
-0.0666233
-0.0601661
-0.0533924
-0.0463315
-0.0390162
-0.0314831
-0.0237719
-0.0159246
-0.0079855
0
0.0079855
0.0159246
0.0237719
0.0314831
0.0390162
0.0463315
0.0533924
0.0601661
0.0666233
0.0727392
0.0784932
0.0838697
-0.0843217
-0.0789241
-0.0731452
-0.0670009
-0.0605117
-0.0537029
-0.0466037
-0.0392474
-0.031671
-0.0239145
-0.0160206
-0.00803372
0
0.00803372
0.0160206
0.0239145
0.031671
0.0392474
0.0466037
0.0537029
0.0605117
0.0670009
0.0731452
0.0789241
0.0843217
-0.0844732
-0.0790685
-0.0732813
-0.0671274
-0.0606276
-0.0538069
-0.0466949
-0.0393249
-0.031734
-0.0239623
-0.0160527
-0.00804988
0
0.00804988
0.0160527
0.0239623
0.031734
0.0393249
0.0466949
0.0538069
0.0606276
0.0671274
0.0732813
0.0790685
0.0844732
-0.0843217
-0.0789241
-0.0731452
-0.0670009
-0.0605117
-0.0537029
-0.0466037
-0.0392474
-0.031671
-0.0239145
-0.0160206
-0.00803372
0
0.00803372
0.0160206
0.0239145
0.031671
0.0392474
0.0466037
0.0537029
0.0605117
0.0670009
0.0731452
0.0789241
0.0843217
-0.0838697
-0.0784932
-0.0727392
-0.0666233
-0.0601661
-0.0533924
-0.0463315
-0.0390162
-0.0314831
-0.0237719
-0.0159246
-0.0079855
0
0.0079855
0.0159246
0.0237719
0.0314831
0.0390162
0.0463315
0.0533924
0.0601661
0.0666233
0.0727392
0.0784932
0.0838697
-0.083122
-0.0777806
-0.0720676
-0.0659988
-0.0595944
-0.052879
-0.0458813
-0.0386338
-0.0311724
-0.0235359
-0.015766
-0.00790576
0
0.00790576