/*--------------------------------*- C++ -*----------------------------------*\
  =========                 |
  \\      /  F ield         | OpenFOAM: The Open Source CFD Toolbox
   \\    /   O peration     | Website:  https://openfoam.org
    \\  /    A nd           | Version:  13
     \\/     M anipulation  |
\*---------------------------------------------------------------------------*/
FoamFile
{
    format      ascii;
    class       volScalarField;
    location    "0";
    object      Ccy;
}
// * * * * * * * * * * * * * * * * * * * * * * * * * * * * * * * * * * * * * //

dimensions      [0 1 0 0 0 0 0];

internalField   nonuniform List<scalar> 
15625
(
-0.0576801
-0.059612
-0.0614337
-0.0631088
-0.0646263
-0.0659793
-0.0671623
-0.068171
-0.0690015
-0.0696506
-0.0701158
-0.070395
-0.0704879
-0.070395
-0.0701158
-0.0696506
-0.0690015
-0.068171
-0.0671623
-0.0659793
-0.0646263
-0.0631088
-0.0614337
-0.059612
-0.0576801
-0.0535644
-0.055408
-0.0571604
-0.0587749
-0.0602383
-0.0615432
-0.0626841
-0.0636567
-0.0644573
-0.0650829
-0.0655311
-0.0658004
-0.0658902
-0.0658004
-0.0655311
-0.0650829
-0.0644573
-0.0636567
-0.0626841
-0.0615432
-0.0602383
-0.0587749
-0.0571604
-0.055408
-0.0535644
-0.0492253
-0.0509803
-0.0526518
-0.0541927
-0.0555899
-0.0568362
-0.0579263
-0.0588558
-0.0596211
-0.0602193
-0.060648
-0.0609058
-0.0609918
-0.0609058
-0.060648
-0.0602193
-0.0596211
-0.0588558
-0.0579263
-0.0568362
-0.0555899
-0.0541927
-0.0526518
-0.0509803
-0.0492253
-0.0447289
-0.0463761
-0.0479468
-0.0493961
-0.0507111
-0.0518849
-0.0529123
-0.053789
-0.0545112
-0.055076
-0.0554808
-0.0557242
-0.0558053
-0.0557242
-0.0554808
-0.055076
-0.0545112
-0.053789
-0.0529123
-0.0518849
-0.0507111
-0.0493961
-0.0479468
-0.0463761
-0.0447289
-0.0400973
-0.041616
-0.0430663
-0.0444058
-0.0456226
-0.0467098
-0.0476622
-0.0484756
-0.0491462
-0.0496708
-0.050047
-0.050273
-0.0503483
-0.050273
-0.050047
-0.0496708
-0.0491462
-0.0484756
-0.0476622
-0.0467098
-0.0456226
-0.0444058
-0.0430663
-0.041616
-0.0400973
-0.0353466
-0.0367176
-0.0380291
-0.0392419
-0.0403449
-0.0413316
-0.042197
-0.0429366
-0.0435469
-0.0440245
-0.0443671
-0.0445728
-0.0446413
-0.0445728
-0.0443671
-0.0440245
-0.0435469
-0.0429366
-0.042197
-0.0413316
-0.0403449
-0.0392419
-0.0380291
-0.0367176
-0.0353466
-0.0304917
-0.031698
-0.032854
-0.0339246
-0.0348995
-0.0357727
-0.0365393
-0.0371951
-0.0377366
-0.0381606
-0.0384648
-0.0386473
-0.038708
-0.0386473
-0.0384648
-0.0381606
-0.0377366
-0.0371951
-0.0365393
-0.0357727
-0.0348995
-0.0339246
-0.032854
-0.031698
-0.0304917
-0.0255473
-0.0265744
-0.0275603
-0.0284748
-0.0293087
-0.0300563
-0.0307134
-0.0312761
-0.0317409
-0.0321051
-0.0323663
-0.0325229
-0.0325749
-0.0325229
-0.0323663
-0.0321051
-0.0317409
-0.0312761
-0.0307134
-0.0300563
-0.0293087
-0.0284748
-0.0275603
-0.0265744
-0.0255473
-0.0205283
-0.021364
-0.0221676
-0.022914
-0.0235955
-0.0242071
-0.0247452
-0.0252062
-0.0255873
-0.025886
-0.0261002
-0.0262286
-0.0262712
-0.0262286
-0.0261002
-0.025886
-0.0255873
-0.0252062
-0.0247452
-0.0242071
-0.0235955
-0.022914
-0.0221676
-0.021364
-0.0205283
-0.0154496
-0.0160843
-0.0166956
-0.017264
-0.0177836
-0.0182505
-0.0186614
-0.0190138
-0.0193051
-0.0195336
-0.0196974
-0.0197956
-0.0198281
-0.0197956
-0.0196974
-0.0195336
-0.0193051
-0.0190138
-0.0186614
-0.0182505
-0.0177836
-0.017264
-0.0166956
-0.0160843
-0.0154496
-0.0103259
-0.0107524
-0.0111638
-0.0115469
-0.0118974
-0.0122125
-0.0124901
-0.0127282
-0.0129252
-0.0130796
-0.0131904
-0.0132567
-0.0132787
-0.0132567
-0.0131904
-0.0130796
-0.0129252
-0.0127282
-0.0124901
-0.0122125
-0.0118974
-0.0115469
-0.0111638
-0.0107524
-0.0103259
-0.00517162
-0.0053853
-0.005592
-0.00578475
-0.00596122
-0.00611997
-0.00625986
-0.00637989
-0.00647921
-0.0065571
-0.00661297
-0.00664641
-0.00665749
-0.00664641
-0.00661297
-0.0065571
-0.00647921
-0.00637989
-0.00625986
-0.00611997
-0.00596122
-0.00578475
-0.005592
-0.0053853
-0.00517162
0
0
0
0
0
0
-7.64531e-21
0
0
0
-1.48228e-20
0
0
0
0
-1.52131e-20
0
0
0
-8.25603e-21
0
0
0
0
0
0.00517162
0.0053853
0.005592
0.00578475
0.00596122
0.00611997
0.00625986
0.00637989
0.00647921
0.0065571
0.00661297
0.00664641
0.00665749
0.00664641
0.00661297
0.0065571
0.00647921
0.00637989
0.00625986
0.00611997
0.00596122
0.00578475
0.005592
0.0053853
0.00517162
0.0103259
0.0107524
0.0111638
0.0115469
0.0118974
0.0122125
0.0124901
0.0127282
0.0129252
0.0130796
0.0131904
0.0132567
0.0132787
0.0132567
0.0131904
0.0130796
0.0129252
0.0127282
0.0124901
0.0122125
0.0118974
0.0115469
0.0111638
0.0107524
0.0103259
0.0154496
0.0160843
0.0166956
0.017264
0.0177836
0.0182505
0.0186614
0.0190138
0.0193051
0.0195336
0.0196974
0.0197956
0.0198281
0.0197956
0.0196974
0.0195336
0.0193051
0.0190138
0.0186614
0.0182505
0.0177836
0.017264
0.0166956
0.0160843
0.0154496
0.0205283
0.021364
0.0221676
0.022914
0.0235955
0.0242071
0.0247452
0.0252062
0.0255873
0.025886
0.0261002
0.0262286
0.0262712
0.0262286
0.0261002
0.025886
0.0255873
0.0252062
0.0247452
0.0242071
0.0235955
0.022914
0.0221676
0.021364
0.0205283
0.0255473
0.0265744
0.0275603
0.0284748
0.0293087
0.0300563
0.0307134
0.0312761
0.0317409
0.0321051
0.0323663
0.0325229
0.0325749
0.0325229
0.0323663
0.0321051
0.0317409
0.0312761
0.0307134
0.0300563
0.0293087
0.0284748
0.0275603
0.0265744
0.0255473
0.0304917
0.031698
0.032854
0.0339246
0.0348995
0.0357727
0.0365393
0.0371951
0.0377366
0.0381606
0.0384648
0.0386473
0.038708
0.0386473
0.0384648
0.0381606
0.0377366
0.0371951
0.0365393
0.0357727
0.0348995
0.0339246
0.032854
0.031698
0.0304917
0.0353466
0.0367176
0.0380291
0.0392419
0.0403449
0.0413316
0.042197
0.0429366
0.0435469
0.0440245
0.0443671
0.0445728
0.0446413
0.0445728
0.0443671
0.0440245
0.0435469
0.0429366
0.042197
0.0413316
0.0403449
0.0392419
0.0380291
0.0367176
0.0353466
0.0400973
0.041616
0.0430663
0.0444058
0.0456226
0.0467098
0.0476622
0.0484756
0.0491462
0.0496708
0.050047
0.050273
0.0503483
0.050273
0.050047
0.0496708
0.0491462
0.0484756
0.0476622
0.0467098
0.0456226
0.0444058
0.0430663
0.041616
0.0400973
0.0447289
0.0463761
0.0479468
0.0493961
0.0507111
0.0518849
0.0529123
0.053789
0.0545112
0.055076
0.0554808
0.0557242
0.0558053
0.0557242
0.0554808
0.055076
0.0545112
0.053789
0.0529123
0.0518849
0.0507111
0.0493961
0.0479468
0.0463761
0.0447289
0.0492253
0.0509803
0.0526518
0.0541927
0.0555899
0.0568362
0.0579263
0.0588558
0.0596211
0.0602193
0.060648
0.0609058
0.0609918
0.0609058
0.060648
0.0602193
0.0596211
0.0588558
0.0579263
0.0568362
0.0555899
0.0541927
0.0526518
0.0509803
0.0492253
0.0535644
0.055408
0.0571604
0.0587749
0.0602383
0.0615432
0.0626841
0.0636567
0.0644573
0.0650829
0.0655311
0.0658004
0.0658902
0.0658004
0.0655311
0.0650829
0.0644573
0.0636567
0.0626841
0.0615432
0.0602383
0.0587749
0.0571604
0.055408
0.0535644
0.0576801
0.059612
0.0614337
0.0631088
0.0646263
0.0659793
0.0671623
0.068171
0.0690015
0.0696506
0.0701158
0.070395
0.0704879
0.070395
0.0701158
0.0696506
0.0690015
0.068171
0.0671623
0.0659793
0.0646263
0.0631088
0.0614337
0.059612
0.0576801
-0.059606
-0.0618398
-0.0639181
-0.0658306
-0.0675683
-0.0691227
-0.0704863
-0.0716523
-0.0726148
-0.0733688
-0.0739104
-0.0742368
-0.074346
-0.0742368
-0.0739104
-0.0733688
-0.0726148
-0.0716523
-0.0704863
-0.0691227
-0.0675683
-0.0658306
-0.0639181
-0.0618398
-0.059606
-0.0553914
-0.0575214
-0.0595138
-0.0613497
-0.0630183
-0.0645109
-0.0658201
-0.0669393
-0.067863
-0.0685865
-0.0691062
-0.0694194
-0.0695242
-0.0694194
-0.0691062
-0.0685865
-0.067863
-0.0669393
-0.0658201
-0.0645109
-0.0630183
-0.0613497
-0.0595138
-0.0575214
-0.0553914
-0.050958
-0.0529793
-0.0548705
-0.0566135
-0.058198
-0.0596155
-0.0608591
-0.0619225
-0.0628002
-0.0634878
-0.0639818
-0.0642795
-0.064379
-0.0642795
-0.0639818
-0.0634878
-0.0628002
-0.0619225
-0.0608591
-0.0596155
-0.058198
-0.0566135
-0.0548705
-0.0529793
-0.050958
-0.0463522
-0.0482432
-0.0500128
-0.0516443
-0.0531281
-0.0544563
-0.0556221
-0.0566194
-0.0574429
-0.0580883
-0.0585519
-0.0588312
-0.0589245
-0.0588312
-0.0585519
-0.0580883
-0.0574429
-0.0566194
-0.0556221
-0.0544563
-0.0531281
-0.0516443
-0.0500128
-0.0482432
-0.0463522
-0.0415936
-0.0433323
-0.04496
-0.0464619
-0.0478288
-0.0490532
-0.0501288
-0.0510495
-0.0518102
-0.0524066
-0.052835
-0.0530929
-0.053179
-0.0530929
-0.052835
-0.0524066
-0.0518102
-0.0510495
-0.0501288
-0.0490532
-0.0478288
-0.0464619
-0.04496
-0.0433323
-0.0415936
-0.0366988
-0.0382646
-0.0397318
-0.0410869
-0.0423214
-0.0434283
-0.0444014
-0.045235
-0.0459242
-0.0464646
-0.0468529
-0.0470865
-0.0471644
-0.0470865
-0.0468529
-0.0464646
-0.0459242
-0.045235
-0.0444014
-0.0434283
-0.0423214
-0.0410869
-0.0397318
-0.0382646
-0.0366988
-0.0316836
-0.0330586
-0.0343484
-0.035541
-0.0366287
-0.037605
-0.038464
-0.0392004
-0.0398096
-0.0402874
-0.0406308
-0.0408372
-0.040906
-0.0408372
-0.0406308
-0.0402874
-0.0398096
-0.0392004
-0.038464
-0.037605
-0.0366287
-0.035541
-0.0343484
-0.0330586
-0.0316836
-0.0265644
-0.0277331
-0.0288309
-0.0298471
-0.030775
-0.0316087
-0.0323428
-0.0329726
-0.0334938
-0.0339029
-0.0341967
-0.0343733
-0.0344321
-0.0343733
-0.0341967
-0.0339029
-0.0334938
-0.0329726
-0.0323428
-0.0316087
-0.030775
-0.0298471
-0.0288309
-0.0277331
-0.0265644
-0.0213579
-0.0223076
-0.0232008
-0.0240287
-0.0247855
-0.0254659
-0.0260656
-0.0265804
-0.0270067
-0.0273412
-0.0275816
-0.027726
-0.027774
-0.027726
-0.0275816
-0.0273412
-0.0270067
-0.0265804
-0.0260656
-0.0254659
-0.0247855
-0.0240287
-0.0232008
-0.0223076
-0.0213579
-0.0160811
-0.0168017
-0.0174803
-0.01811
-0.0186861
-0.0192046
-0.0196618
-0.0200545
-0.0203798
-0.0206351
-0.0208186
-0.0209287
-0.0209653
-0.0209287
-0.0208186
-0.0206351
-0.0203798
-0.0200545
-0.0196618
-0.0192046
-0.0186861
-0.01811
-0.0174803
-0.0168017
-0.0160811
-0.010751
-0.0112351
-0.0116916
-0.0121156
-0.0125039
-0.0128535
-0.0131619
-0.0134269
-0.0136465
-0.0138188
-0.0139427
-0.014017
-0.0140417
-0.014017
-0.0139427
-0.0138188
-0.0136465
-0.0134269
-0.0131619
-0.0128535
-0.0125039
-0.0121156
-0.0116916
-0.0112351
-0.010751
-0.0053848
-0.00562782
-0.00585726
-0.00607054
-0.00626591
-0.00644191
-0.00659723
-0.00673072
-0.00684134
-0.0069282
-0.0069906
-0.00702804
-0.00704047
-0.00702804
-0.0069906
-0.0069282
-0.00684134
-0.00673072
-0.00659723
-0.00644191
-0.00626591
-0.00607054
-0.00585726
-0.00562782
-0.0053848
0
-7.9193e-21
0
0
-7.23169e-21
-1.40806e-20
1.37574e-20
-1.34938e-20
0
1.31385e-20
-1.30429e-20
0
0
0
0
-1.33628e-20
1.35987e-20
0
-1.42826e-20
1.475e-20
-1.53208e-20
-8.00933e-21
-4.43643e-20
0
-9.78173e-21
0.0053848
0.00562782
0.00585726
0.00607054
0.00626591
0.00644191
0.00659723
0.00673072
0.00684134
0.0069282
0.0069906
0.00702804
0.00704047
0.00702804
0.0069906
0.0069282
0.00684134
0.00673072
0.00659723
0.00644191
0.00626591
0.00607054
0.00585726
0.00562782
0.0053848
0.010751
0.0112351
0.0116916
0.0121156
0.0125039
0.0128535
0.0131619
0.0134269
0.0136465
0.0138188
0.0139427
0.014017
0.0140417
0.014017
0.0139427
0.0138188
0.0136465
0.0134269
0.0131619
0.0128535
0.0125039
0.0121156
0.0116916
0.0112351
0.010751
0.0160811
0.0168017
0.0174803
0.01811
0.0186861
0.0192046
0.0196618
0.0200545
0.0203798
0.0206351
0.0208186
0.0209287
0.0209653
0.0209287
0.0208186
0.0206351
0.0203798
0.0200545
0.0196618
0.0192046
0.0186861
0.01811
0.0174803
0.0168017
0.0160811
0.0213579
0.0223076
0.0232008
0.0240287
0.0247855
0.0254659
0.0260656
0.0265804
0.0270067
0.0273412
0.0275816
0.027726
0.027774
0.027726
0.0275816
0.0273412
0.0270067
0.0265804
0.0260656
0.0254659
0.0247855
0.0240287
0.0232008
0.0223076
0.0213579
0.0265644
0.0277331
0.0288309
0.0298471
0.030775
0.0316087
0.0323428
0.0329726
0.0334938
0.0339029
0.0341967
0.0343733
0.0344321
0.0343733
0.0341967
0.0339029
0.0334938
0.0329726
0.0323428
0.0316087
0.030775
0.0298471
0.0288309
0.0277331
0.0265644
0.0316836
0.0330586
0.0343484
0.035541
0.0366287
0.037605
0.038464
0.0392004
0.0398096
0.0402874
0.0406308
0.0408372
0.040906
0.0408372
0.0406308
0.0402874
0.0398096
0.0392004
0.038464
0.037605
0.0366287
0.035541
0.0343484
0.0330586
0.0316836
0.0366988
0.0382646
0.0397318
0.0410869
0.0423214
0.0434283
0.0444014
0.045235
0.0459242
0.0464646
0.0468529
0.0470865
0.0471644
0.0470865
0.0468529
0.0464646
0.0459242
0.045235
0.0444014
0.0434283
0.0423214
0.0410869
0.0397318
0.0382646
0.0366988
0.0415936
0.0433323
0.04496
0.0464619
0.0478288
0.0490532
0.0501288
0.0510495
0.0518102
0.0524066
0.052835
0.0530929
0.053179
0.0530929
0.052835
0.0524066
0.0518102
0.0510495
0.0501288
0.0490532
0.0478288
0.0464619
0.04496
0.0433323
0.0415936
0.0463522
0.0482432
0.0500128
0.0516443
0.0531281
0.0544563
0.0556221
0.0566194
0.0574429
0.0580883
0.0585519
0.0588312
0.0589245
0.0588312
0.0585519
0.0580883
0.0574429
0.0566194
0.0556221
0.0544563
0.0531281
0.0516443
0.0500128
0.0482432
0.0463522
0.050958
0.0529793
0.0548705
0.0566135
0.058198
0.0596155
0.0608591
0.0619225
0.0628002
0.0634878
0.0639818
0.0642795
0.064379
0.0642795
0.0639818
0.0634878
0.0628002
0.0619225
0.0608591
0.0596155
0.058198
0.0566135
0.0548705
0.0529793
0.050958
0.0553914
0.0575214
0.0595138
0.0613497
0.0630183
0.0645109
0.0658201
0.0669393
0.067863
0.0685865
0.0691062
0.0694194
0.0695242
0.0694194
0.0691062
0.0685865
0.067863
0.0669393
0.0658201
0.0645109
0.0630183
0.0613497
0.0595138
0.0575214
0.0553914
0.059606
0.0618398
0.0639181
0.0658306
0.0675683
0.0691227
0.0704863
0.0716523
0.0726148
0.0733688
0.0739104
0.0742368
0.074346
0.0742368
0.0739104
0.0733688
0.0726148
0.0716523
0.0704863
0.0691227
0.0675683
0.0658306
0.0639181
0.0618398
0.059606
-0.0614246
-0.0639175
-0.0662374
-0.0683775
-0.070327
-0.0720751
-0.0736119
-0.0749285
-0.076017
-0.076871
-0.0774853
-0.0778562
-0.0779805
-0.0778562
-0.0774853
-0.076871
-0.076017
-0.0749285
-0.0736119
-0.0720751
-0.070327
-0.0683775
-0.0662374
-0.0639175
-0.0614246
-0.0571346
-0.0595067
-0.0617237
-0.0637703
-0.0656347
-0.0673062
-0.0687752
-0.0700334
-0.0710734
-0.0718892
-0.0724759
-0.0728301
-0.0729487
-0.0728301
-0.0724759
-0.0718892
-0.0710734
-0.0700334
-0.0687752
-0.0673062
-0.0656347
-0.0637703
-0.0617237
-0.0595067
-0.0571346
-0.0526173
-0.0548602
-0.0569566
-0.0588919
-0.0606549
-0.0622355
-0.0636248
-0.0648148
-0.0657986
-0.0665702
-0.0671252
-0.0674601
-0.0675723
-0.0674601
-0.0671252
-0.0665702
-0.0657986
-0.0648148
-0.0636248
-0.0622355
-0.0606549
-0.0588919
-0.0569566
-0.0548602
-0.0526173
-0.0479102
-0.0500018
-0.0519565
-0.0537615
-0.0554062
-0.0568814
-0.0581785
-0.0592899
-0.060209
-0.0609301
-0.0614487
-0.0617615
-0.0618662
-0.0617615
-0.0614487
-0.0609301
-0.060209
-0.0592899
-0.0581785
-0.0568814
-0.0554062
-0.0537615
-0.0519565
-0.0500018
-0.0479102
-0.0430324
-0.04495
-0.0467427
-0.048399
-0.0499091
-0.0512643
-0.0524567
-0.0534789
-0.0543246
-0.0549883
-0.0554657
-0.0557534
-0.0558496
-0.0557534
-0.0554657
-0.0549883
-0.0543246
-0.0534789
-0.0524567
-0.0512643
-0.0499091
-0.048399
-0.0467427
-0.04495
-0.0430324
-0.0380007
-0.0397237
-0.0413355
-0.0428258
-0.0441858
-0.0454072
-0.0464826
-0.0474051
-0.0481686
-0.048768
-0.0491991
-0.0494588
-0.0495456
-0.0494588
-0.0491991
-0.048768
-0.0481686
-0.0474051
-0.0464826
-0.0454072
-0.0441858
-0.0428258
-0.0413355
-0.0397237
-0.0380007
-0.0328326
-0.0343426
-0.0357565
-0.0370652
-0.0382605
-0.0393349
-0.0402817
-0.0410943
-0.0417673
-0.0422957
-0.0426757
-0.0429045
-0.0429808
-0.0429045
-0.0426757
-0.0422957
-0.0417673
-0.0410943
-0.0402817
-0.0393349
-0.0382605
-0.0370652
-0.0357565
-0.0343426
-0.0328326
-0.0275457
-0.0288272
-0.0300285
-0.0311415
-0.0321591
-0.0330747
-0.0338819
-0.0345753
-0.0351497
-0.0356009
-0.0359253
-0.0361205
-0.0361856
-0.0361205
-0.0359253
-0.0356009
-0.0351497
-0.0345753
-0.0338819
-0.0330747
-0.0321591
-0.0311415
-0.0300285
-0.0288272
-0.0275457
-0.0221588
-0.0231988
-0.024175
-0.0250805
-0.025909
-0.026655
-0.0273132
-0.0278789
-0.0283477
-0.028716
-0.0289808
-0.0291401
-0.0291931
-0.0291401
-0.0289808
-0.028716
-0.0283477
-0.0278789
-0.0273132
-0.026655
-0.025909
-0.0250805
-0.024175
-0.0231988
-0.0221588
-0.016691
-0.0174795
-0.0182205
-0.0189084
-0.0195384
-0.0201061
-0.0206072
-0.021038
-0.0213952
-0.0216759
-0.0218777
-0.021999
-0.0220393
-0.021999
-0.0218777
-0.0216759
-0.0213952
-0.021038
-0.0206072
-0.0201061
-0.0195384
-0.0189084
-0.0182205
-0.0174795
-0.016691
-0.0111619
-0.0116914
-0.0121896
-0.0126525
-0.0130767
-0.0134591
-0.0137968
-0.0140873
-0.0143281
-0.0145174
-0.0146534
-0.0147352
-0.0147624
-0.0147352
-0.0146534
-0.0145174
-0.0143281
-0.0140873
-0.0137968
-0.0134591
-0.0130767
-0.0126525
-0.0121896
-0.0116914
-0.0111619
-0.00559137
-0.00585729
-0.00610763
-0.00634035
-0.00655372
-0.00674613
-0.0069161
-0.00706231
-0.00718357
-0.00727887
-0.0073474
-0.00738856
-0.00740225
-0.00738856
-0.0073474
-0.00727887
-0.00718357
-0.00706231
-0.0069161
-0.00674613
-0.00655372
-0.00634035
-0.00610763
-0.00585729
-0.00559137
0
7.58781e-21
-7.24657e-21
0
0
0
0
0
0
1.17442e-20
0
0
0
0
0
0
1.21321e-20
0
0
0
0
0
0
-8.27643e-21
8.95206e-21
0.00559137
0.00585729
0.00610763
0.00634035
0.00655372
0.00674613
0.0069161
0.00706231
0.00718357
0.00727887
0.0073474
0.00738856
0.00740225
0.00738856
0.0073474
0.00727887
0.00718357
0.00706231
0.0069161
0.00674613
0.00655372
0.00634035
0.00610763
0.00585729
0.00559137
0.0111619
0.0116914
0.0121896
0.0126525
0.0130767
0.0134591
0.0137968
0.0140873
0.0143281
0.0145174
0.0146534
0.0147352
0.0147624
0.0147352
0.0146534
0.0145174
0.0143281
0.0140873
0.0137968
0.0134591
0.0130767
0.0126525
0.0121896
0.0116914
0.0111619
0.016691
0.0174795
0.0182205
0.0189084
0.0195384
0.0201061
0.0206072
0.021038
0.0213952
0.0216759
0.0218777
0.021999
0.0220393
0.021999
0.0218777
0.0216759
0.0213952
0.021038
0.0206072
0.0201061
0.0195384
0.0189084
0.0182205
0.0174795
0.016691
0.0221588
0.0231988
0.024175
0.0250805
0.025909
0.026655
0.0273132
0.0278789
0.0283477
0.028716
0.0289808
0.0291401
0.0291931
0.0291401
0.0289808
0.028716
0.0283477
0.0278789
0.0273132
0.026655
0.025909
0.0250805
0.024175
0.0231988
0.0221588
0.0275457
0.0288272
0.0300285
0.0311415
0.0321591
0.0330747
0.0338819
0.0345753
0.0351497
0.0356009
0.0359253
0.0361205
0.0361856
0.0361205
0.0359253
0.0356009
0.0351497
0.0345753
0.0338819
0.0330747
0.0321591
0.0311415
0.0300285
0.0288272
0.0275457
0.0328326
0.0343426
0.0357565
0.0370652
0.0382605
0.0393349
0.0402817
0.0410943
0.0417673
0.0422957
0.0426757
0.0429045
0.0429808
0.0429045
0.0426757
0.0422957
0.0417673
0.0410943
0.0402817
0.0393349
0.0382605
0.0370652
0.0357565
0.0343426
0.0328326
0.0380007
0.0397237
0.0413355
0.0428258
0.0441858
0.0454072
0.0464826
0.0474051
0.0481686
0.048768
0.0491991
0.0494588
0.0495456
0.0494588
0.0491991
0.048768
0.0481686
0.0474051
0.0464826
0.0454072
0.0441858
0.0428258
0.0413355
0.0397237
0.0380007
0.0430324
0.04495
0.0467427
0.048399
0.0499091
0.0512643
0.0524567
0.0534789
0.0543246
0.0549883
0.0554657
0.0557534
0.0558496
0.0557534
0.0554657
0.0549883
0.0543246
0.0534789
0.0524567
0.0512643
0.0499091
0.048399
0.0467427
0.04495
0.0430324
0.0479102
0.0500018
0.0519565
0.0537615
0.0554062
0.0568814
0.0581785
0.0592899
0.060209
0.0609301
0.0614487
0.0617615
0.0618662
0.0617615
0.0614487
0.0609301
0.060209
0.0592899
0.0581785
0.0568814
0.0554062
0.0537615
0.0519565
0.0500018
0.0479102
0.0526173
0.0548602
0.0569566
0.0588919
0.0606549
0.0622355
0.0636248
0.0648148
0.0657986
0.0665702
0.0671252
0.0674601
0.0675723
0.0674601
0.0671252
0.0665702
0.0657986
0.0648148
0.0636248
0.0622355
0.0606549
0.0588919
0.0569566
0.0548602
0.0526173
0.0571346
0.0595067
0.0617237
0.0637703
0.0656347
0.0673062
0.0687752
0.0700334
0.0710734
0.0718892
0.0724759
0.0728301
0.0729487
0.0728301
0.0724759
0.0718892
0.0710734
0.0700334
0.0687752
0.0673062
0.0656347
0.0637703
0.0617237
0.0595067
0.0571346
0.0614246
0.0639175
0.0662374
0.0683775
0.070327
0.0720751
0.0736119
0.0749285
0.076017
0.076871
0.0774853
0.0778562
0.0779805
0.0778562
0.0774853
0.076871
0.076017
0.0749285
0.0736119
0.0720751
0.070327
0.0683775
0.0662374
0.0639175
0.0614246
-0.0630995
-0.065833
-0.0683816
-0.0707374
-0.0728874
-0.0748186
-0.0765188
-0.0779772
-0.0791843
-0.0801321
-0.0808145
-0.0812268
-0.081365
-0.0812268
-0.0808145
-0.0801321
-0.0791843
-0.0779772
-0.0765188
-0.0748186
-0.0728874
-0.0707374
-0.0683816
-0.065833
-0.0630995
-0.0587463
-0.0613427
-0.0637714
-0.0660172
-0.0680664
-0.0699065
-0.0715259
-0.0729146
-0.0740636
-0.0749657
-0.075615
-0.0760072
-0.0761386
-0.0760072
-0.075615
-0.0749657
-0.0740636
-0.0729146
-0.0715259
-0.0699065
-0.0680664
-0.0660172
-0.0637714
-0.0613427
-0.0587463
-0.0541544
-0.056602
-0.0588916
-0.0610085
-0.06294
-0.0646742
-0.0662005
-0.0675093
-0.0685924
-0.0694426
-0.0700546
-0.0704241
-0.0705478
-0.0704241
-0.0700546
-0.0694426
-0.0685924
-0.0675093
-0.0662005
-0.0646742
-0.06294
-0.0610085
-0.0588916
-0.056602
-0.0541544
-0.0493557
-0.0516318
-0.0537609
-0.0557296
-0.0575262
-0.0591397
-0.0605603
-0.0617788
-0.0627874
-0.0635792
-0.0641491
-0.0644931
-0.0646082
-0.0644931
-0.0641491
-0.0635792
-0.0627874
-0.0617788
-0.0605603
-0.0591397
-0.0575262
-0.0557296
-0.0537609
-0.0516318
-0.0493557
-0.0443687
-0.0464507
-0.0483986
-0.0502006
-0.0518458
-0.0533242
-0.0546264
-0.0557439
-0.0566692
-0.0573958
-0.0579187
-0.0582342
-0.0583397
-0.0582342
-0.0579187
-0.0573958
-0.0566692
-0.0557439
-0.0546264
-0.0533242
-0.0518458
-0.0502006
-0.0483986
-0.0464507
-0.0443687
-0.0392113
-0.0410782
-0.042826
-0.0444439
-0.0459221
-0.0472514
-0.0484229
-0.0494288
-0.050262
-0.0509165
-0.0513875
-0.0516715
-0.0517664
-0.0516715
-0.0513875
-0.0509165
-0.050262
-0.0494288
-0.0484229
-0.0472514
-0.0459221
-0.0444439
-0.042826
-0.0410782
-0.0392113
-0.0339016
-0.0355352
-0.0370658
-0.0384839
-0.0397807
-0.0409476
-0.0419768
-0.0428609
-0.0435936
-0.0441693
-0.0445835
-0.0448331
-0.0449164
-0.0448331
-0.0445835
-0.0441693
-0.0435936
-0.0428609
-0.0419768
-0.0409476
-0.0397807
-0.0384839
-0.0370658
-0.0355352
-0.0339016
-0.0284593
-0.0298438
-0.0311424
-0.0323468
-0.033449
-0.0344416
-0.0353176
-0.0360706
-0.0366947
-0.0371853
-0.0375383
-0.0377508
-0.0378217
-0.0377508
-0.0375383
-0.0371853
-0.0366947
-0.0360706
-0.0353176
-0.0344416
-0.033449
-0.0323468
-0.0311424
-0.0298438
-0.0284593
-0.0229048
-0.0240274
-0.0250814
-0.0260599
-0.0269562
-0.0277639
-0.0284772
-0.0290905
-0.0295992
-0.029999
-0.0302866
-0.0304597
-0.0305174
-0.0304597
-0.0302866
-0.029999
-0.0295992
-0.0290905
-0.0284772
-0.0277639
-0.0269562
-0.0260599
-0.0250814
-0.0240274
-0.0229048
-0.0172594
-0.0181098
-0.0189093
-0.0196521
-0.0203329
-0.0209469
-0.0214893
-0.0219559
-0.022343
-0.0226472
-0.0228662
-0.0229979
-0.0230417
-0.0229979
-0.0228662
-0.0226472
-0.022343
-0.0219559
-0.0214893
-0.0209469
-0.0203329
-0.0196521
-0.0189093
-0.0181098
-0.0172594
-0.011545
-0.012116
-0.0126532
-0.0131526
-0.0136107
-0.014024
-0.0143893
-0.0147036
-0.0149643
-0.0151694
-0.0153169
-0.0154056
-0.0154351
-0.0154056
-0.0153169
-0.0151694
-0.0149643
-0.0147036
-0.0143893
-0.014024
-0.0136107
-0.0131526
-0.0126532
-0.012116
-0.011545
-0.00578415
-0.00607084
-0.00634071
-0.00659175
-0.00682207
-0.00702992
-0.00721366
-0.0073718
-0.00750303
-0.00760621
-0.00768044
-0.00772508
-0.00773993
-0.00772508
-0.00768044
-0.00760621
-0.00750303
-0.0073718
-0.00721366
-0.00702992
-0.00682207
-0.00659175
-0.00634071
-0.00607084
-0.00578415
0
1.45162e-20
-1.3697e-20
0
1.23772e-20
1.18646e-20
0
0
0
0
0
1.04061e-20
0
0
1.05433e-20
0
0
0
0
0
1.27575e-20
1.34815e-20
0
-1.54183e-20
1.67236e-20
0.00578415
0.00607084
0.00634071
0.00659175
0.00682207
0.00702992
0.00721366
0.0073718
0.00750303
0.00760621
0.00768044
0.00772508
0.00773993
0.00772508
0.00768044
0.00760621
0.00750303
0.0073718
0.00721366
0.00702992
0.00682207
0.00659175
0.00634071
0.00607084
0.00578415
0.011545
0.012116
0.0126532
0.0131526
0.0136107
0.014024
0.0143893
0.0147036
0.0149643
0.0151694
0.0153169
0.0154056
0.0154351
0.0154056
0.0153169
0.0151694
0.0149643
0.0147036
0.0143893
0.014024
0.0136107
0.0131526
0.0126532
0.012116
0.011545
0.0172594
0.0181098
0.0189093
0.0196521
0.0203329
0.0209469
0.0214893
0.0219559
0.022343
0.0226472
0.0228662
0.0229979
0.0230417
0.0229979
0.0228662
0.0226472
0.022343
0.0219559
0.0214893
0.0209469
0.0203329
0.0196521
0.0189093
0.0181098
0.0172594
0.0229048
0.0240274
0.0250814
0.0260599
0.0269562
0.0277639
0.0284772
0.0290905
0.0295992
0.029999
0.0302866
0.0304597
0.0305174
0.0304597
0.0302866
0.029999
0.0295992
0.0290905
0.0284772
0.0277639
0.0269562
0.0260599
0.0250814
0.0240274
0.0229048
0.0284593
0.0298438
0.0311424
0.0323468
0.033449
0.0344416
0.0353176
0.0360706
0.0366947
0.0371853
0.0375383
0.0377508
0.0378217
0.0377508
0.0375383
0.0371853
0.0366947
0.0360706
0.0353176
0.0344416
0.033449
0.0323468
0.0311424
0.0298438
0.0284593
0.0339016
0.0355352
0.0370658
0.0384839
0.0397807
0.0409476
0.0419768
0.0428609
0.0435936
0.0441693
0.0445835
0.0448331
0.0449164
0.0448331
0.0445835
0.0441693
0.0435936
0.0428609
0.0419768
0.0409476
0.0397807
0.0384839
0.0370658
0.0355352
0.0339016
0.0392113
0.0410782
0.042826
0.0444439
0.0459221
0.0472514
0.0484229
0.0494288
0.050262
0.0509165
0.0513875
0.0516715
0.0517664
0.0516715
0.0513875
0.0509165
0.050262
0.0494288
0.0484229
0.0472514
0.0459221
0.0444439
0.042826
0.0410782
0.0392113
0.0443687
0.0464507
0.0483986
0.0502006
0.0518458
0.0533242
0.0546264
0.0557439
0.0566692
0.0573958
0.0579187
0.0582342
0.0583397
0.0582342
0.0579187
0.0573958
0.0566692
0.0557439
0.0546264
0.0533242
0.0518458
0.0502006
0.0483986
0.0464507
0.0443687
0.0493557
0.0516318
0.0537609
0.0557296
0.0575262
0.0591397
0.0605603
0.0617788
0.0627874
0.0635792
0.0641491
0.0644931
0.0646082
0.0644931
0.0641491
0.0635792
0.0627874
0.0617788
0.0605603
0.0591397
0.0575262
0.0557296
0.0537609
0.0516318
0.0493557
0.0541544
0.056602
0.0588916
0.0610085
0.06294
0.0646742
0.0662005
0.0675093
0.0685924
0.0694426
0.0700546
0.0704241
0.0705478
0.0704241
0.0700546
0.0694426
0.0685924
0.0675093
0.0662005
0.0646742
0.06294
0.0610085
0.0588916
0.056602
0.0541544
0.0587463
0.0613427
0.0637714
0.0660172
0.0680664
0.0699065
0.0715259
0.0729146
0.0740636
0.0749657
0.075615
0.0760072
0.0761386
0.0760072
0.075615
0.0749657
0.0740636
0.0729146
0.0715259
0.0699065
0.0680664
0.0660172
0.0637714
0.0613427
0.0587463
0.0630995
0.065833
0.0683816
0.0707374
0.0728874
0.0748186
0.0765188
0.0779772
0.0791843
0.0801321
0.0808145
0.0812268
0.081365
0.0812268
0.0808145
0.0801321
0.0791843
0.0779772
0.0765188
0.0748186
0.0728874
0.0707374
0.0683816
0.065833
0.0630995
-0.0646185
-0.0675751
-0.070337
-0.072894
-0.0752309
-0.0773324
-0.0791846
-0.0807747
-0.0820918
-0.0831267
-0.083872
-0.0843225
-0.0844736
-0.0843225
-0.083872
-0.0831267
-0.0820918
-0.0807747
-0.0791846
-0.0773324
-0.0752309
-0.072894
-0.070337
-0.0675751
-0.0646185
-0.0602116
-0.0630157
-0.0656415
-0.0680728
-0.0702941
-0.0722908
-0.0740499
-0.0755597
-0.0768098
-0.0777918
-0.0784989
-0.0789262
-0.0790694
-0.0789262
-0.0784989
-0.0777918
-0.0768098
-0.0755597
-0.0740499
-0.0722908
-0.0702941
-0.0680728
-0.0656415
-0.0630157
-0.0602116
-0.0555539
-0.0581911
-0.0606604
-0.0629464
-0.0650345
-0.0669115
-0.068565
-0.069984
-0.0711591
-0.0720821
-0.0727467
-0.0731481
-0.0732825
-0.0731481
-0.0727467
-0.0720821
-0.0711591
-0.069984
-0.068565
-0.0669115
-0.0650345
-0.0629464
-0.0606604
-0.0581911
-0.0555539
-0.0506734
-0.0531204
-0.0554115
-0.0575326
-0.0594703
-0.0612125
-0.0627476
-0.0640654
-0.0651569
-0.0660143
-0.0666316
-0.0670043
-0.067129
-0.0670043
-0.0666316
-0.0660143
-0.0651569
-0.0640654
-0.0627476
-0.0612125
-0.0594703
-0.0575326
-0.0554115
-0.0531204
-0.0506734
-0.0455882
-0.0478222
-0.0499143
-0.0518519
-0.0536227
-0.0552155
-0.0566196
-0.0578254
-0.0588244
-0.0596093
-0.0601744
-0.0605154
-0.0606294
-0.0605154
-0.0601744
-0.0596093
-0.0588244
-0.0578254
-0.0566196
-0.0552155
-0.0536227
-0.0518519
-0.0499143
-0.0478222
-0.0455882
-0.0403167
-0.0423168
-0.0441909
-0.0459275
-0.0475157
-0.0489451
-0.0502059
-0.0512891
-0.0521869
-0.0528924
-0.0534003
-0.0537066
-0.053809
-0.0537066
-0.0534003
-0.0528924
-0.0521869
-0.0512891
-0.0502059
-0.0489451
-0.0475157
-0.0459275
-0.0441909
-0.0423168
-0.0403167
-0.0348786
-0.0366263
-0.0382653
-0.0397852
-0.0411763
-0.0424291
-0.0435348
-0.0444852
-0.0452732
-0.0458927
-0.0463385
-0.0466073
-0.046697
-0.0466073
-0.0463385
-0.0458927
-0.0452732
-0.0444852
-0.0435348
-0.0424291
-0.0411763
-0.0397852
-0.0382653
-0.0366263
-0.0348786
-0.0292946
-0.0307743
-0.0321633
-0.0334525
-0.0346334
-0.0356976
-0.0366374
-0.0374456
-0.0381159
-0.038643
-0.0390223
-0.0392508
-0.039327
-0.0392508
-0.0390223
-0.038643
-0.0381159
-0.0374456
-0.0366374
-0.0356976
-0.0346334
-0.0334525
-0.0321633
-0.0307743
-0.0292946
-0.0235872
-0.0247859
-0.0259123
-0.0269588
-0.027918
-0.028783
-0.0295473
-0.0302049
-0.0307505
-0.0311794
-0.0314882
-0.0316741
-0.0317361
-0.0316741
-0.0314882
-0.0311794
-0.0307505
-0.0302049
-0.0295473
-0.028783
-0.027918
-0.0269588
-0.0259123
-0.0247859
-0.0235872
-0.0177794
-0.0186872
-0.0195409
-0.0203347
-0.0210627
-0.0217197
-0.0223004
-0.0228002
-0.0232149
-0.0235411
-0.0237759
-0.0239171
-0.0239642
-0.0239171
-0.0237759
-0.0235411
-0.0232149
-0.0228002
-0.0223004
-0.0217197
-0.0210627
-0.0203347
-0.0195409
-0.0186872
-0.0177794
-0.0118957
-0.0125049
-0.0130783
-0.0136118
-0.0141014
-0.0145433
-0.0149341
-0.0152705
-0.0155497
-0.0157694
-0.0159274
-0.0160225
-0.0160542
-0.0160225
-0.0159274
-0.0157694
-0.0155497
-0.0152705
-0.0149341
-0.0145433
-0.0141014
-0.0136118
-0.0130783
-0.0125049
-0.0118957
-0.0059607
-0.0062665
-0.00655449
-0.00682254
-0.00706862
-0.0072908
-0.00748731
-0.00765652
-0.00779697
-0.00790745
-0.00798696
-0.00803479
-0.00805071
-0.00803479
-0.00798696
-0.00790745
-0.00779697
-0.00765652
-0.00748731
-0.0072908
-0.00706862
-0.00682254
-0.00655449
-0.0062665
-0.0059607
0
0
1.30029e-20
0
0
-1.10274e-20
1.05776e-20
2.04277e-20
-9.92795e-21
9.71356e-21
1.91321e-20
-1.89645e-20
-1.89209e-20
-1.90009e-20
-1.92067e-20
1.95434e-20
1.00097e-20
-1.03234e-20
2.14422e-20
1.12138e-20
-1.18159e-20
0
0
1.45002e-20
0
0.0059607
0.0062665
0.00655449
0.00682254
0.00706862
0.0072908
0.00748731
0.00765652
0.00779697
0.00790745
0.00798696
0.00803479