/*--------------------------------*- C++ -*----------------------------------*\
  =========                 |
  \\      /  F ield         | OpenFOAM: The Open Source CFD Toolbox
   \\    /   O peration     | Website:  https://openfoam.org
    \\  /    A nd           | Version:  13
     \\/     M anipulation  |
\*---------------------------------------------------------------------------*/
FoamFile
{
    format      ascii;
    class       volScalarField;
    location    "0";
    object      Ccz;
}
// * * * * * * * * * * * * * * * * * * * * * * * * * * * * * * * * * * * * * //

dimensions      [0 1 0 0 0 0 0];

internalField   nonuniform List<scalar> 
15625
(
-0.0576789
-0.0596137
-0.0614362
-0.0631117
-0.0646295
-0.0659826
-0.0671658
-0.0681745
-0.0690051
-0.0696543
-0.0701195
-0.0703988
-0.0704918
-0.0703988
-0.0701195
-0.0696543
-0.0690051
-0.0681745
-0.0671658
-0.0659826
-0.0646295
-0.0631117
-0.0614362
-0.0596137
-0.0576789
-0.0596129
-0.0618489
-0.0639279
-0.0658408
-0.0675787
-0.0691333
-0.070497
-0.071663
-0.0726255
-0.0733796
-0.0739212
-0.0742477
-0.0743569
-0.0742477
-0.0739212
-0.0733796
-0.0726255
-0.071663
-0.070497
-0.0691333
-0.0675787
-0.0658408
-0.0639279
-0.0618489
-0.0596129
-0.0614375
-0.0639318
-0.0662522
-0.0683925
-0.070342
-0.0720902
-0.0736271
-0.0749437
-0.0760323
-0.0768863
-0.0775007
-0.0778716
-0.0779959
-0.0778716
-0.0775007
-0.0768863
-0.0760323
-0.0749437
-0.0736271
-0.0720902
-0.070342
-0.0683925
-0.0662522
-0.0639318
-0.0614375
-0.0631158
-0.06585
-0.0683988
-0.0707547
-0.0729048
-0.074836
-0.0765362
-0.0779946
-0.0792017
-0.0801496
-0.080832
-0.0812443
-0.0813825
-0.0812443
-0.080832
-0.0801496
-0.0792017
-0.0779946
-0.0765362
-0.074836
-0.0729048
-0.0707547
-0.0683988
-0.06585
-0.0631158
-0.0646359
-0.0675926
-0.0703546
-0.0729116
-0.0752485
-0.07735
-0.0792022
-0.0807923
-0.0821095
-0.0831443
-0.0838897
-0.0843402
-0.0844912
-0.0843402
-0.0838897
-0.0831443
-0.0821095
-0.0807923
-0.0792022
-0.07735
-0.0752485
-0.0729116
-0.0703546
-0.0675926
-0.0646359
-0.0659906
-0.0691503
-0.0721072
-0.0748483
-0.077356
-0.0796133
-0.0816044
-0.0833149
-0.0847326
-0.085847
-0.0866498
-0.087135
-0.0872976
-0.087135
-0.0866498
-0.085847
-0.0847326
-0.0833149
-0.0816044
-0.0796133
-0.077356
-0.0748483
-0.0721072
-0.0691503
-0.0659906
-0.0671742
-0.0705149
-0.073646
-0.0765516
-0.0792121
-0.0816088
-0.0837243
-0.0855427
-0.0870504
-0.088236
-0.0890901
-0.0896063
-0.0897792
-0.0896063
-0.0890901
-0.088236
-0.0870504
-0.0855427
-0.0837243
-0.0816088
-0.0792121
-0.0765516
-0.073646
-0.0705149
-0.0671742
-0.0681824
-0.0716797
-0.0749621
-0.0780105
-0.080804
-0.083322
-0.0855457
-0.0874581
-0.0890444
-0.0902919
-0.0911908
-0.0917339
-0.0919157
-0.0917339
-0.0911908
-0.0902919
-0.0890444
-0.0874581
-0.0855457
-0.083322
-0.080804
-0.0780105
-0.0749621
-0.0716797
-0.0681824
-0.0690116
-0.0726394
-0.076048
-0.079216
-0.0821208
-0.0847405
-0.087055
-0.0890463
-0.0906984
-0.091998
-0.0929344
-0.0934999
-0.0936892
-0.0934999
-0.0929344
-0.091998
-0.0906984
-0.0890463
-0.087055
-0.0847405
-0.0821208
-0.079216
-0.076048
-0.0726394
-0.0690116
-0.069659
-0.0733897
-0.0768981
-0.0801608
-0.0831537
-0.0858541
-0.0882408
-0.0902947
-0.0919991
-0.09334
-0.0943062
-0.0948896
-0.0950847
-0.0948896
-0.0943062
-0.09334
-0.0919991
-0.0902947
-0.0882408
-0.0858541
-0.0831537
-0.0801608
-0.0768981
-0.0733897
-0.069659
-0.0701224
-0.0739274
-0.0775081
-0.0808394
-0.0838963
-0.0866551
-0.0890941
-0.0911935
-0.0929359
-0.0943068
-0.0952946
-0.0958909
-0.0960903
-0.0958909
-0.0952946
-0.0943068
-0.0929359
-0.0911935
-0.0890941
-0.0866551
-0.0838963
-0.0808394
-0.0775081
-0.0739274
-0.0701224
-0.0704001
-0.0742505
-0.0778751
-0.081248
-0.0843436
-0.087138
-0.0896087
-0.0917356
-0.0935011
-0.0948902
-0.0958911
-0.0964952
-0.0966972
-0.0964952
-0.0958911
-0.0948902
-0.0935011
-0.0917356
-0.0896087
-0.087138
-0.0843436
-0.081248
-0.0778751
-0.0742505
-0.0704001
-0.0704924
-0.0743583
-0.0779976
-0.0813844
-0.0844931
-0.0872993
-0.0897807
-0.0919168
-0.09369
-0.0950852
-0.0960905
-0.0966972
-0.0969001
-0.0966972
-0.0960905
-0.0950852
-0.09369
-0.0919168
-0.0897807
-0.0872993
-0.0844931
-0.0813844
-0.0779976
-0.0743583
-0.0704924
-0.0704001
-0.0742505
-0.0778751
-0.081248
-0.0843436
-0.087138
-0.0896087
-0.0917356
-0.0935011
-0.0948902
-0.0958911
-0.0964952
-0.0966972
-0.0964952
-0.0958911
-0.0948902
-0.0935011
-0.0917356
-0.0896087
-0.087138
-0.0843436
-0.081248
-0.0778751
-0.0742505
-0.0704001
-0.0701224
-0.0739274
-0.0775081
-0.0808394
-0.0838963
-0.0866551
-0.0890941
-0.0911935
-0.0929359
-0.0943068
-0.0952946
-0.0958909
-0.0960903
-0.0958909
-0.0952946
-0.0943068
-0.0929359
-0.0911935
-0.0890941
-0.0866551
-0.0838963
-0.0808394
-0.0775081
-0.0739274
-0.0701224
-0.069659
-0.0733897
-0.0768981
-0.0801608
-0.0831537
-0.0858541
-0.0882408
-0.0902947
-0.0919991
-0.09334
-0.0943062
-0.0948896
-0.0950847
-0.0948896
-0.0943062
-0.09334
-0.0919991
-0.0902947
-0.0882408
-0.0858541
-0.0831537
-0.0801608
-0.0768981
-0.0733897
-0.069659
-0.0690116
-0.0726394
-0.076048
-0.079216
-0.0821208
-0.0847405
-0.087055
-0.0890463
-0.0906984
-0.091998
-0.0929344
-0.0934999
-0.0936892
-0.0934999
-0.0929344
-0.091998
-0.0906984
-0.0890463
-0.087055
-0.0847405
-0.0821208
-0.079216
-0.076048
-0.0726394
-0.0690116
-0.0681824
-0.0716797
-0.0749621
-0.0780105
-0.080804
-0.083322
-0.0855457
-0.0874581
-0.0890444
-0.0902919
-0.0911908
-0.0917339
-0.0919157
-0.0917339
-0.0911908
-0.0902919
-0.0890444
-0.0874581
-0.0855457
-0.083322
-0.080804
-0.0780105
-0.0749621
-0.0716797
-0.0681824
-0.0671742
-0.0705149
-0.073646
-0.0765516
-0.0792121
-0.0816088
-0.0837243
-0.0855427
-0.0870504
-0.088236
-0.0890901
-0.0896063
-0.0897792
-0.0896063
-0.0890901
-0.088236
-0.0870504
-0.0855427
-0.0837243
-0.0816088
-0.0792121
-0.0765516
-0.073646
-0.0705149
-0.0671742
-0.0659906
-0.0691503
-0.0721072
-0.0748483
-0.077356
-0.0796133
-0.0816044
-0.0833149
-0.0847326
-0.085847
-0.0866498
-0.087135
-0.0872976
-0.087135
-0.0866498
-0.085847
-0.0847326
-0.0833149
-0.0816044
-0.0796133
-0.077356
-0.0748483
-0.0721072
-0.0691503
-0.0659906
-0.0646359
-0.0675926
-0.0703546
-0.0729116
-0.0752485
-0.07735
-0.0792022
-0.0807923
-0.0821095
-0.0831443
-0.0838897
-0.0843402
-0.0844912
-0.0843402
-0.0838897
-0.0831443
-0.0821095
-0.0807923
-0.0792022
-0.07735
-0.0752485
-0.0729116
-0.0703546
-0.0675926
-0.0646359
-0.0631158
-0.06585
-0.0683988
-0.0707547
-0.0729048
-0.074836
-0.0765362
-0.0779946
-0.0792017
-0.0801496
-0.080832
-0.0812443
-0.0813825
-0.0812443
-0.080832
-0.0801496
-0.0792017
-0.0779946
-0.0765362
-0.074836
-0.0729048
-0.0707547
-0.0683988
-0.06585
-0.0631158
-0.0614375
-0.0639318
-0.0662522
-0.0683925
-0.070342
-0.0720902
-0.0736271
-0.0749437
-0.0760323
-0.0768863
-0.0775007
-0.0778716
-0.0779959
-0.0778716
-0.0775007
-0.0768863
-0.0760323
-0.0749437
-0.0736271
-0.0720902
-0.070342
-0.0683925
-0.0662522
-0.0639318
-0.0614375
-0.0596129
-0.0618489
-0.0639279
-0.0658408
-0.0675787
-0.0691333
-0.070497
-0.071663
-0.0726255
-0.0733796
-0.0739212
-0.0742477
-0.0743569
-0.0742477
-0.0739212
-0.0733796
-0.0726255
-0.071663
-0.070497
-0.0691333
-0.0675787
-0.0658408
-0.0639279
-0.0618489
-0.0596129
-0.0576789
-0.0596137
-0.0614362
-0.0631117
-0.0646295
-0.0659826
-0.0671658
-0.0681745
-0.0690051
-0.0696543
-0.0701195
-0.0703988
-0.0704918
-0.0703988
-0.0701195
-0.0696543
-0.0690051
-0.0681745
-0.0671658
-0.0659826
-0.0646295
-0.0631117
-0.0614362
-0.0596137
-0.0576789
-0.0535725
-0.0554174
-0.0571703
-0.058785
-0.0602485
-0.0615535
-0.0626945
-0.0636671
-0.0644678
-0.0650934
-0.0655417
-0.0658111
-0.0659009
-0.0658111
-0.0655417
-0.0650934
-0.0644678
-0.0636671
-0.0626945
-0.0615535
-0.0602485
-0.058785
-0.0571703
-0.0554174
-0.0535725
-0.0554176
-0.0575485
-0.0595412
-0.0613774
-0.0630461
-0.0645388
-0.065848
-0.0669673
-0.067891
-0.0686146
-0.0691343
-0.0694476
-0.0695524
-0.0694476
-0.0691343
-0.0686146
-0.067891
-0.0669673
-0.065848
-0.0645388
-0.0630461
-0.0613774
-0.0595412
-0.0575485
-0.0554176
-0.0571723
-0.0595449
-0.0617621
-0.0638089
-0.0656733
-0.0673449
-0.0688139
-0.0700721
-0.0711122
-0.071928
-0.0725147
-0.0728689
-0.0729876
-0.0728689
-0.0725147
-0.071928
-0.0711122
-0.0700721
-0.0688139
-0.0673449
-0.0656733
-0.0638089
-0.0617621
-0.0595449
-0.0571723
-0.0587893
-0.0613859
-0.0638147
-0.0660606
-0.0681099
-0.06995
-0.0715695
-0.0729581
-0.0741072
-0.0750093
-0.0756586
-0.0760508
-0.0761822
-0.0760508
-0.0756586
-0.0750093
-0.0741072
-0.0729581
-0.0715695
-0.06995
-0.0681099
-0.0660606
-0.0638147
-0.0613859
-0.0587893
-0.0602548
-0.0630589
-0.0656849
-0.0681162
-0.0703374
-0.0723342
-0.0740933
-0.0756031
-0.0768532
-0.0778352
-0.0785423
-0.0789696
-0.0791128
-0.0789696
-0.0785423
-0.0778352
-0.0768532
-0.0756031
-0.0740933
-0.0723342
-0.0703374
-0.0681162
-0.0656849
-0.0630589
-0.0602548
-0.0615609
-0.0645544
-0.0673605
-0.0699613
-0.0723397
-0.0744796
-0.0763663
-0.0779867
-0.0793292
-0.0803842
-0.081144
-0.0816031
-0.0817569
-0.0816031
-0.081144
-0.0803842
-0.0793292
-0.0779867
-0.0763663
-0.0744796
-0.0723397
-0.0699613
-0.0673605
-0.0645544
-0.0615609
-0.0627022
-0.0658645
-0.0688313
-0.0715835
-0.0741024
-0.0763704
-0.0783714
-0.0800907
-0.0815159
-0.0826362
-0.0834432
-0.0839307
-0.084094
-0.0839307
-0.0834432
-0.0826362
-0.0815159
-0.0800907
-0.0783714
-0.0763704
-0.0741024
-0.0715835
-0.0688313
-0.0658645
-0.0627022
-0.0636742
-0.0669826
-0.070089
-0.0729727
-0.0756138
-0.0779932
-0.0800935
-0.0818992
-0.0833963
-0.0845735
-0.0854216
-0.0859337
-0.0861052
-0.0859337
-0.0854216
-0.0845735
-0.0833963
-0.0818992
-0.0800935
-0.0779932
-0.0756138
-0.0729727
-0.070089
-0.0669826
-0.0636742
-0.0644736
-0.0679037
-0.0711266
-0.0741203
-0.0768636
-0.0793364
-0.0815201
-0.0833981
-0.0849557
-0.0861807
-0.0870631
-0.0875959
-0.0877742
-0.0875959
-0.0870631
-0.0861807
-0.0849557
-0.0833981
-0.0815201
-0.0793364
-0.0768636
-0.0741203
-0.0711266
-0.0679037
-0.0644736
-0.0650976
-0.0686238
-0.0719388
-0.0750195
-0.0778439
-0.0803907
-0.0826406
-0.0845761
-0.0861817
-0.0874445
-0.0883543
-0.0889035
-0.0890871
-0.0889035
-0.0883543
-0.0874445
-0.0861817
-0.0845761
-0.0826406
-0.0803907
-0.0778439
-0.0750195
-0.0719388
-0.0686238
-0.0650976
-0.0655442
-0.0691399
-0.0725215
-0.0756653
-0.0785484
-0.0811489
-0.0834468
-0.085424
-0.0870645
-0.0883548
-0.0892844
-0.0898454
-0.090033
-0.0898454
-0.0892844
-0.0883548
-0.0870645
-0.085424
-0.0834468
-0.0811489
-0.0785484
-0.0756653
-0.0725215
-0.0691399
-0.0655442
-0.0658122
-0.0694501
-0.0728721
-0.0760542
-0.0789728
-0.0816059
-0.0839329
-0.0859354
-0.087597
-0.088904
-0.0898456
-0.0904138
-0.0906037
-0.0904138
-0.0898456
-0.088904
-0.087597
-0.0859354
-0.0839329
-0.0816059
-0.0789728
-0.0760542
-0.0728721
-0.0694501
-0.0658122
-0.0659015
-0.0695536
-0.0729892
-0.076184
-0.0791145
-0.0817585
-0.0840953
-0.0861062
-0.0877749
-0.0890876
-0.0900332
-0.0906038
-0.0907945
-0.0906038
-0.0900332
-0.0890876
-0.0877749
-0.0861062
-0.0840953
-0.0817585
-0.0791145
-0.076184
-0.0729892
-0.0695536
-0.0659015
-0.0658122
-0.0694501
-0.0728721
-0.0760542
-0.0789728
-0.0816059
-0.0839329
-0.0859354
-0.087597
-0.088904
-0.0898456
-0.0904138
-0.0906037
-0.0904138
-0.0898456
-0.088904
-0.087597
-0.0859354
-0.0839329
-0.0816059
-0.0789728
-0.0760542
-0.0728721
-0.0694501
-0.0658122
-0.0655442
-0.0691399
-0.0725215
-0.0756653
-0.0785484
-0.0811489
-0.0834468
-0.085424
-0.0870645
-0.0883548
-0.0892844
-0.0898454
-0.090033
-0.0898454
-0.0892844
-0.0883548
-0.0870645
-0.085424
-0.0834468
-0.0811489
-0.0785484
-0.0756653
-0.0725215
-0.0691399
-0.0655442
-0.0650976
-0.0686238
-0.0719388
-0.0750195
-0.0778439
-0.0803907
-0.0826406
-0.0845761
-0.0861817
-0.0874445
-0.0883543
-0.0889035
-0.0890871
-0.0889035
-0.0883543
-0.0874445
-0.0861817
-0.0845761
-0.0826406
-0.0803907
-0.0778439
-0.0750195
-0.0719388
-0.0686238
-0.0650976
-0.0644736
-0.0679037
-0.0711266
-0.0741203
-0.0768636
-0.0793364
-0.0815201
-0.0833981
-0.0849557
-0.0861807
-0.0870631
-0.0875959
-0.0877742
-0.0875959
-0.0870631
-0.0861807
-0.0849557
-0.0833981
-0.0815201
-0.0793364
-0.0768636
-0.0741203
-0.0711266
-0.0679037
-0.0644736
-0.0636742
-0.0669826
-0.070089
-0.0729727
-0.0756138
-0.0779932
-0.0800935
-0.0818992
-0.0833963
-0.0845735
-0.0854216
-0.0859337
-0.0861052
-0.0859337
-0.0854216
-0.0845735
-0.0833963
-0.0818992
-0.0800935
-0.0779932
-0.0756138
-0.0729727
-0.070089
-0.0669826
-0.0636742
-0.0627022
-0.0658645
-0.0688313
-0.0715835
-0.0741024
-0.0763704
-0.0783714
-0.0800907
-0.0815159
-0.0826362
-0.0834432
-0.0839307
-0.084094
-0.0839307
-0.0834432
-0.0826362
-0.0815159
-0.0800907
-0.0783714
-0.0763704
-0.0741024
-0.0715835
-0.0688313
-0.0658645
-0.0627022
-0.0615609
-0.0645544
-0.0673605
-0.0699613
-0.0723397
-0.0744796
-0.0763663
-0.0779867
-0.0793292
-0.0803842
-0.081144
-0.0816031
-0.0817569
-0.0816031
-0.081144
-0.0803842
-0.0793292
-0.0779867
-0.0763663
-0.0744796
-0.0723397
-0.0699613
-0.0673605
-0.0645544
-0.0615609
-0.0602548
-0.0630589
-0.0656849
-0.0681162
-0.0703374
-0.0723342
-0.0740933
-0.0756031
-0.0768532
-0.0778352
-0.0785423
-0.0789696
-0.0791128
-0.0789696
-0.0785423
-0.0778352
-0.0768532
-0.0756031
-0.0740933
-0.0723342
-0.0703374
-0.0681162
-0.0656849
-0.0630589
-0.0602548
-0.0587893
-0.0613859
-0.0638147
-0.0660606
-0.0681099
-0.06995
-0.0715695
-0.0729581
-0.0741072
-0.0750093
-0.0756586
-0.0760508
-0.0761822
-0.0760508
-0.0756586
-0.0750093
-0.0741072
-0.0729581
-0.0715695
-0.06995
-0.0681099
-0.0660606
-0.0638147
-0.0613859
-0.0587893
-0.0571723
-0.0595449
-0.0617621
-0.0638089
-0.0656733
-0.0673449
-0.0688139
-0.0700721
-0.0711122
-0.071928
-0.0725147
-0.0728689
-0.0729876
-0.0728689
-0.0725147
-0.071928
-0.0711122
-0.0700721
-0.0688139
-0.0673449
-0.0656733
-0.0638089
-0.0617621
-0.0595449
-0.0571723
-0.0554176
-0.0575485
-0.0595412
-0.0613774
-0.0630461
-0.0645388
-0.065848
-0.0669673
-0.067891
-0.0686146
-0.0691343
-0.0694476
-0.0695524
-0.0694476
-0.0691343
-0.0686146
-0.067891
-0.0669673
-0.065848
-0.0645388
-0.0630461
-0.0613774
-0.0595412
-0.0575485
-0.0554176
-0.0535725
-0.0554174
-0.0571703
-0.058785
-0.0602485
-0.0615535
-0.0626945
-0.0636671
-0.0644678
-0.0650934
-0.0655417
-0.0658111
-0.0659009
-0.0658111
-0.0655417
-0.0650934
-0.0644678
-0.0636671
-0.0626945
-0.0615535
-0.0602485
-0.058785
-0.0571703
-0.0554174
-0.0535725
-0.0492388
-0.0509944
-0.052666
-0.054207
-0.0556043
-0.0568506
-0.0579407
-0.0588703
-0.0596357
-0.0602339
-0.0606626
-0.0609204
-0.0610064
-0.0609204
-0.0606626
-0.0602339
-0.0596357
-0.0588703
-0.0579407
-0.0568506
-0.0556043
-0.054207
-0.052666
-0.0509944
-0.0492388
-0.0509948
-0.0530165
-0.0549079
-0.056651
-0.0582355
-0.0596531
-0.0608968
-0.0619601
-0.0628379
-0.0635256
-0.0640195
-0.0643172
-0.0644168
-0.0643172
-0.0640195
-0.0635256
-0.0628379
-0.0619601
-0.0608968
-0.0596531
-0.0582355
-0.056651
-0.0549079
-0.0530165
-0.0509948
-0.0526681
-0.0549113
-0.0570077
-0.0589431
-0.0607061
-0.0622868
-0.0636761
-0.0648662
-0.0658499
-0.0666216
-0.0671766
-0.0675116
-0.0676237
-0.0675116
-0.0671766
-0.0666216
-0.0658499
-0.0648662
-0.0636761
-0.0622868
-0.0607061
-0.0589431
-0.0570077
-0.0549113
-0.0526681
-0.0542111
-0.0566588
-0.0589485
-0.0610654
-0.0629969
-0.0647312
-0.0662575
-0.0675664
-0.0686494
-0.0694997
-0.0701116
-0.0704811
-0.0706049
-0.0704811
-0.0701116
-0.0694997
-0.0686494
-0.0675664
-0.0662575
-0.0647312
-0.0629969
-0.0610654
-0.0589485
-0.0566588
-0.0542111
-0.05561
-0.0582472
-0.0607167
-0.0630026
-0.0650908
-0.0669677
-0.0686212
-0.0700403
-0.0712154
-0.0721384
-0.072803
-0.0732044
-0.0733388
-0.0732044
-0.072803
-0.0721384
-0.0712154
-0.0700403
-0.0686212
-0.0669677
-0.0650908
-0.0630026
-0.0607167
-0.0582472
-0.05561
-0.0568574
-0.0596674
-0.062301
-0.0647414
-0.0669727
-0.06898
-0.0707497
-0.0722694
-0.0735285
-0.074518
-0.0752305
-0.0756609
-0.075805
-0.0756609
-0.0752305
-0.074518
-0.0735285
-0.0722694
-0.0707497
-0.06898
-0.0669727
-0.0647414
-0.062301
-0.0596674
-0.0568574
-0.0579477
-0.0609117
-0.063692
-0.0662703
-0.0686295
-0.0707534
-0.072627
-0.0742369
-0.0755712
-0.07662
-0.0773755
-0.0778317
-0.0779844
-0.0778317
-0.0773755
-0.07662
-0.0755712
-0.0742369
-0.072627
-0.0707534
-0.0686295
-0.0662703
-0.063692
-0.0609117
-0.0579477
-0.0588767
-0.0619741
-0.0648815
-0.0675796
-0.07005
-0.0722753
-0.0742394
-0.0759278
-0.0773276
-0.0784282
-0.079221
-0.0796996
-0.0798598
-0.0796996
-0.079221
-0.0784282
-0.0773276
-0.0759278
-0.0742394
-0.0722753
-0.07005
-0.0675796
-0.0648815
-0.0619741
-0.0588767
-0.0596409
-0.0628495
-0.0658631
-0.0686613
-0.0712248
-0.0735351
-0.075575
-0.0773292
-0.0787841
-0.0799281
-0.0807522
-0.0812496
-0.081416
-0.0812496
-0.0807522
-0.0799281
-0.0787841
-0.0773292
-0.075575
-0.0735351
-0.0712248
-0.0686613
-0.0658631
-0.0628495
-0.0596409
-0.0602376
-0.0635339
-0.0666315
-0.069509
-0.0721463
-0.0745239
-0.0766241
-0.0784305
-0.079929
-0.0811076
-0.0819565
-0.0824688
-0.08264
-0.0824688
-0.0819565
-0.0811076
-0.079929
-0.0784305
-0.0766241
-0.0745239
-0.0721463
-0.069509
-0.0666315
-0.0635339
-0.0602376
-0.0606649
-0.0640246
-0.0671828
-0.0701178
-0.0728085
-0.0752349
-0.0773788
-0.0792232
-0.0807534
-0.081957
-0.0828239
-0.083347
-0.0835218
-0.083347
-0.0828239
-0.081957
-0.0807534
-0.0792232
-0.0773788
-0.0752349
-0.0728085
-0.0701178
-0.0671828
-0.0640246
-0.0606649
-0.0609214
-0.0643195
-0.0675145
-0.0704842
-0.0732073
-0.0756634
-0.0778337
-0.0797011
-0.0812505
-0.0824693
-0.0833471
-0.0838767
-0.0840537
-0.0838767
-0.0833471
-0.0824693
-0.0812505
-0.0797011
-0.0778337
-0.0756634
-0.0732073
-0.0704842
-0.0675145
-0.0643195
-0.0609214
-0.0610069
-0.0644179
-0.0676251
-0.0706065
-0.0733404
-0.0758064
-0.0779856
-0.0798607
-0.0814166
-0.0826405
-0.083522
-0.0840537
-0.0842314
-0.0840537
-0.083522
-0.0826405
-0.0814166
-0.0798607
-0.0779856
-0.0758064
-0.0733404
-0.0706065
-0.0676251
-0.0644179
-0.0610069
-0.0609214
-0.0643195
-0.0675145
-0.0704842
-0.0732073
-0.0756634
-0.0778337
-0.0797011
-0.0812505
-0.0824693
-0.0833471
-0.0838767
-0.0840537
-0.0838767
-0.0833471
-0.0824693
-0.0812505
-0.0797011
-0.0778337
-0.0756634
-0.0732073
-0.0704842
-0.0675145
-0.0643195
-0.0609214
-0.0606649
-0.0640246
-0.0671828
-0.0701178
-0.0728085
-0.0752349
-0.0773788
-0.0792232
-0.0807534
-0.081957
-0.0828239
-0.083347
-0.0835218
-0.083347
-0.0828239
-0.081957
-0.0807534
-0.0792232
-0.0773788
-0.0752349
-0.0728085
-0.0701178
-0.0671828
-0.0640246
-0.0606649
-0.0602376
-0.0635339
-0.0666315
-0.069509
-0.0721463
-0.0745239
-0.0766241
-0.0784305
-0.079929
-0.0811076
-0.0819565
-0.0824688
-0.08264
-0.0824688
-0.0819565
-0.0811076
-0.079929
-0.0784305
-0.0766241
-0.0745239
-0.0721463
-0.069509
-0.0666315
-0.0635339
-0.0602376
-0.0596409
-0.0628495
-0.0658631
-0.0686613
-0.0712248
-0.0735351
-0.075575
-0.0773292
-0.0787841
-0.0799281
-0.0807522
-0.0812496
-0.081416
-0.0812496
-0.0807522
-0.0799281
-0.0787841
-0.0773292
-0.075575
-0.0735351
-0.0712248
-0.0686613
-0.0658631
-0.0628495
-0.0596409
-0.0588767
-0.0619741
-0.0648815
-0.0675796
-0.07005
-0.0722753
-0.0742394
-0.0759278
-0.0773276
-0.0784282
-0.079221
-0.0796996
-0.0798598
-0.0796996
-0.079221
-0.0784282
-0.0773276
-0.0759278
-0.0742394
-0.0722753
-0.07005
-0.0675796
-0.0648815
-0.0619741
-0.0588767
-0.0579477
-0.0609117
-0.063692
-0.0662703
-0.0686295
-0.0707534
-0.072627
-0.0742369
-0.0755712
-0.07662
-0.0773755
-0.0778317
-0.0779844
-0.0778317
-0.0773755
-0.07662
-0.0755712
-0.0742369
-0.072627
-0.0707534
-0.0686295
-0.0662703
-0.063692
-0.0609117
-0.0579477
-0.0568574
-0.0596674
-0.062301
-0.0647414
-0.0669727
-0.06898
-0.0707497
-0.0722694
-0.0735285
-0.074518
-0.0752305
-0.0756609
-0.075805
-0.0756609
-0.0752305
-0.074518
-0.0735285
-0.0722694
-0.0707497
-0.06898
-0.0669727
-0.0647414
-0.062301
-0.0596674
-0.0568574
-0.05561
-0.0582472
-0.0607167
-0.0630026
-0.0650908
-0.0669677
-0.0686212
-0.0700403
-0.0712154
-0.0721384
-0.072803
-0.0732044
-0.0733388
-0.0732044
-0.072803
-0.0721384
-0.0712154
-0.0700403
-0.0686212
-0.0669677
-0.0650908
-0.0630026
-0.0607167
-0.0582472
-0.05561
-0.0542111
-0.0566588
-0.0589485
-0.0610654
-0.0629969
-0.0647312
-0.0662575
-0.0675664
-0.0686494
-0.0694997
-0.0701116
-0.0704811
-0.0706049
-0.0704811
-0.0701116
-0.0694997
-0.0686494
-0.0675664
-0.0662575
-0.0647312
-0.0629969
-0.0610654
-0.0589485
-0.0566588
-0.0542111
-0.0526681
-0.0549113
-0.0570077
-0.0589431
-0.0607061
-0.0622868
-0.0636761
-0.0648662
-0.0658499
-0.0666216
-0.0671766
-0.0675116
-0.0676237
-0.0675116
-0.0671766
-0.0666216
-0.0658499
-0.0648662
-0.0636761
-0.0622868
-0.0607061
-0.0589431
-0.0570077
-0.0549113
-0.0526681
-0.0509948
-0.0530165
-0.0549079
-0.056651
-0.0582355
-0.0596531
-0.0608968
-0.0619601
-0.0628379
-0.0635256
-0.0640195
-0.0643172
-0.0644168
-0.0643172
-0.0640195
-0.0635256
-0.0628379
-0.0619601
-0.0608968
-0.0596531
-0.0582355
-0.056651
-0.0549079
-0.0530165
-0.0509948
-0.0492388
-0.0509944
-0.052666
-0.054207
-0.0556043
-0.0568506
-0.0579407
-0.0588703
-0.0596357
-0.0602339
-0.0606626
-0.0609204
-0.0610064
-0.0609204
-0.0606626
-0.0602339
-0.0596357
-0.0588703
-0.0579407
-0.0568506
-0.0556043
-0.054207
-0.052666
-0.0509944
-0.0492388
-0.0447448
-0.0463919
-0.0479627
-0.0494119
-0.050727
-0.0519009
-0.0529283
-0.053805
-0.0545272
-0.055092
-0.0554969
-0.0557402
-0.0558214
-0.0557402
-0.0554969
-0.055092
-0.0545272
-0.053805
-0.0529283
-0.0519009
-0.050727
-0.0494119
-0.0479627
-0.0463919
-0.0447448
-0.0463925
-0.0482837
-0.0500533
-0.0516849
-0.0531687
-0.0544969
-0.0556627
-0.05666
-0.0574836
-0.058129
-0.0585926
-0.0588719
-0.0589652
-0.0588719
-0.0585926
-0.058129
-0.0574836
-0.05666
-0.0556627
-0.0544969
-0.0531687
-0.0516849
-0.0500533
-0.0482837
-0.0463925
-0.0479647
-0.0500564
-0.0520112
-0.0538162
-0.055461
-0.0569362
-0.0582333
-0.0593447
-0.0602638
-0.0609849
-0.0615035
-0.0618164
-0.061921
-0.0618164
-0.0615035
-0.0609849
-0.0602638
-0.0593447
-0.0582333
-0.0569362
-0.055461
-0.0538162
-0.0520112
-0.0500564
-0.0479647
-0.0494157
-0.051692
-0.053821
-0.0557898
-0.0575864
-0.0592
-0.0606205
-0.061839
-0.0628476
-0.0636395
-0.0642094
-0.0645533
-0.0646685
-0.0645533
-0.0642094
-0.0636395
-0.0628476
-0.061839
-0.0606205
-0.0592
-0.0575864
-0.0557898
-0.053821
-0.051692
-0.0494157
-0.0507322
-0.0531793
-0.0554704
-0.0575915
-0.0595293
-0.0612715
-0.0628066
-0.0641244
-0.0652159
-0.0660733
-0.0666906
-0.0670633
-0.067188
-0.0670633
-0.0666906
-0.0660733
-0.0652159
-0.0641244
-0.0628066
-0.0612715
-0.0595293
-0.0575915
-0.0554704
-0.0531793
-0.0507322
-0.051907
-0.0545098
-0.0569489
-0.0592092
-0.061276
-0.0631356
-0.0647753
-0.0661838
-0.067351
-0.0682682
-0.0689287
-0.0693275
-0.0694609
-0.0693275
-0.0689287
-0.0682682
-0.067351
-0.0661838
-0.0647753
-0.0631356
-0.061276
-0.0592092
-0.0569489
-0.0545098
-0.051907
-0.0529346
-0.0556762
-0.0582475
-0.0606321
-0.0628141
-0.0647787
-0.0665121
-0.0680018
-0.0692366
-0.0702074
-0.0709065
-0.0713285
-0.0714697
-0.0713285
-0.0709065
-0.0702074
-0.0692366
-0.0680018
-0.0665121
-0.0647787
-0.0628141
-0.0606321
-0.0582475
-0.0556762
-0.0529346
-0.0538107
-0.0566726
-0.0593585
-0.061851
-0.0641332
-0.0661891
-0.068004
-0.0695644
-0.0708583
-0.0718756
-0.0726083
-0.0730506
-0.0731985
-0.0730506
-0.0726083
-0.0718756
-0.0708583
-0.0695644
-0.068004
-0.0661891
-0.0641332
-0.061851
-0.0593585
-0.0566726
-0.0538107
-0.0545319
-0.057494
-0.0602756
-0.0628583
-0.0652244
-0.0673569
-0.0692401
-0.0708597
-0.0722031
-0.0732596
-0.0740205
-0.0744796
-0.0746331
-0.0744796
-0.0740205
-0.0732596
-0.0722031
-0.0708597
-0.0692401
-0.0673569
-0.0652244
-0.0628583
-0.0602756
-0.057494
-0.0545319
-0.0550953
-0.0581365
-0.0609938
-0.0636479
-0.0660804
-0.0682735
-0.070211
-0.0718777
-0.0732604
-0.0743479
-0.0751312
-0.0756037
-0.0757616
-0.0756037
-0.0751312
-0.0743479
-0.0732604
-0.0718777
-0.070211
-0.0682735
-0.0660804
-0.0636479
-0.0609938
-0.0581365
-0.0550953
-0.0554989
-0.0585972
-0.0615091
-0.0642149
-0.0666955
-0.0689327
-0.0709095
-0.0726103
-0.0740216
-0.0751317
-0.0759312
-0.0764134
-0.0765745
-0.0764134
-0.0759312
-0.0751317
-0.0740216
-0.0726103
-0.0709095
-0.0689327
-0.0666955
-0.0642149
-0.0615091
-0.0585972
-0.0554989
-0.0557411
-0.058874
-0.061819
-0.0645561
-0.0670659
-0.0693297
-0.0713303
-0.0730519
-0.0744805
-0.0756042
-0.0764136
-0.0769016
-0.0770647
-0.0769016
-0.0764136
-0.0756042
-0.0744805
-0.0730519
-0.0713303
-0.0693297
-0.0670659
-0.0645561
-0.061819
-0.058874
-0.0557411
-0.0558218
-0.0589662
-0.0619223
-0.0646699
-0.0671894
-0.0694622
-0.0714708
-0.0731993
-0.0746337
-0.075762
-0.0765747
-0.0770647
-0.0772284
-0.0770647
-0.0765747
-0.075762
-0.0746337
-0.0731993
-0.0714708
-0.0694622
-0.0671894
-0.0646699
-0.0619223
-0.0589662
-0.0558218
-0.0557411
-0.058874
-0.061819
-0.0645561
-0.0670659
-0.0693297
-0.0713303
-0.0730519
-0.0744805
-0.0756042
-0.0764136
-0.0769016
-0.0770647
-0.0769016
-0.0764136
-0.0756042
-0.0744805
-0.0730519
-0.0713303
-0.0693297
-0.0670659
-0.0645561
-0.061819
-0.058874
-0.0557411
-0.0554989
-0.0585972
-0.0615091
-0.0642149
-0.0666955
-0.0689327
-0.0709095
-0.0726103
-0.0740216
-0.0751317
-0.0759312
-0.0764134
-0.0765745
-0.0764134
-0.0759312
-0.0751317
-0.0740216
-0.0726103
-0.0709095
-0.0689327
-0.0666955
-0.0642149
-0.0615091
-0.0585972
-0.0554989
-0.0550953
-0.0581365
-0.0609938
-0.0636479
-0.0660804
-0.0682735
-0.070211
-0.0718777
-0.0732604
-0.0743479
-0.0751312
-0.0756037
-0.0757616
-0.0756037
-0.0751312
-0.0743479
-0.0732604
-0.0718777
-0.070211
-0.0682735
-0.0660804
-0.0636479
-0.0609938
-0.0581365
-0.0550953
-0.0545319
-0.057494
-0.0602756
-0.0628583
-0.0652244
-0.0673569
-0.0692401
-0.0708597
-0.0722031
-0.0732596
-0.0740205
-0.0744796
-0.0746331
-0.0744796
-0.0740205
-0.0732596
-0.0722031
-0.0708597
-0.0692401
-0.0673569
-0.0652244
-0.0628583
-0.0602756
-0.057494
-0.0545319
-0.0538107
-0.0566726
-0.0593585
-0.061851
-0.0641332
-0.0661891
-0.068004
-0.0695644
-0.0708583
-0.0718756
-0.0726083
-0.0730506
-0.0731985
-0.0730506
-0.0726083
-0.0718756
-0.0708583
-0.0695644
-0.068004
-0.0661891
-0.0641332
-0.061851
-0.0593585
-0.0566726
-0.0538107
-0.0529346
-0.0556762
-0.0582475
-0.0606321
-0.0628141
-0.0647787
-0.0665121
-0.0680018
-0.0692366
-0.0702074
-0.0709065
-0.0713285
-0.0714697
-0.0713285
-0.0709065
-0.0702074
-0.0692366
-0.0680018
-0.0665121
-0.0647787
-0.0628141
-0.0606321
-0.0582475
-0.0556762
-0.0529346
-0.051907
-0.0545098
-0.0569489
-0.0592092
-0.061276
-0.0631356
-0.0647753
-0.0661838
-0.067351
-0.0682682
-0.0689287
-0.0693275
-0.0694609
-0.0693275
-0.0689287
-0.0682682
-0.067351
-0.0661838
-0.0647753
-0.0631356
-0.061276
-0.0592092
-0.0569489
-0.0545098
-0.051907
-0.0507322
-0.0531793
-0.0554704
-0.0575915
-0.0595293
-0.0612715
-0.0628066
-0.0641244
-0.0652159
-0.0660733
-0.0666906
-0.0670633
-0.067188
-0.0670633
-0.0666906
-0.0660733
-0.0652159
-0.0641244
-0.0628066
-0.0612715
-0.0595293
-0.0575915
-0.0554704
-0.0531793
-0.0507322
-0.0494157
-0.051692
-0.053821
-0.0557898
-0.0575864
-0.0592
-0.0606205
-0.061839
-0.0628476
-0.0636395
-0.0642094
-0.0645533
-0.0646685
-0.0645533
-0.0642094
-0.0636395
-0.0628476
-0.061839
-0.0606205
-0.0592
-0.0575864
-0.0557898
-0.053821
-0.051692
-0.0494157
-0.0479647
-0.0500564
-0.0520112
-0.0538162
-0.055461
-0.0569362
-0.0582333
-0.0593447
-0.0602638
-0.0609849
-0.0615035
-0.0618164
-0.061921
-0.0618164
-0.0615035
-0.0609849
-0.0602638
-0.0593447
-0.0582333
-0.0569362
-0.055461
-0.0538162
-0.0520112
-0.0500564
-0.0479647
-0.0463925
-0.0482837
-0.0500533
-0.0516849
-0.0531687
-0.0544969
-0.0556627
-0.05666
-0.0574836
-0.058129
-0.0585926
-0.0588719
-0.0589652
-0.0588719
-0.0585926
-0.058129
-0.0574836
-0.05666
-0.0556627
-0.0544969
-0.0531687
-0.0516849
-0.0500533
-0.0482837
-0.0463925
-0.0447448
-0.0463919
-0.0479627
-0.0494119
-0.050727
-0.0519009
-0.0529283
-0.053805
-0.0545272
-0.055092
-0.0554969
-0.0557402
-0.0558214
-0.0557402
-0.0554969
-0.055092
-0.0545272
-0.053805
-0.0529283
-0.0519009
-0.050727
-0.0494119
-0.0479627
-0.0463919
-0.0447448
-0.0401131
-0.0416315
-0.0430818
-0.0444212
-0.045638
-0.0467251
-0.0476776
-0.048491
-0.0491616
-0.0496862
-0.0500624
-0.0502884
-0.0503637
-0.0502884
-0.0500624
-0.0496862
-0.0491616
-0.048491
-0.0476776
-0.0467251
-0.045638
-0.0444212
-0.0430818
-0.0416315
-0.0401131
-0.0416321
-0.0433708
-0.0449985
-0.0465004
-0.0478672
-0.0490917
-0.0501673
-0.051088
-0.0518487
-0.0524451
-0.0528735
-0.0531315
-0.0532176
-0.0531315
-0.0528735
-0.0524451
-0.0518487
-0.051088
-0.0501673
-0.0490917
-0.0478672
-0.0465004
-0.0449985
-0.0433708
-0.0416321
-0.0430836
-0.0450013
-0.046794
-0.0484503
-0.0499604
-0.0513156
-0.052508
-0.0535303
-0.054376
-0.0550397
-0.055517
-0.0558048
-0.0559009
-0.0558048
-0.055517
-0.0550397
-0.054376
-0.0535303
-0.052508
-0.0513156
-0.0499604
-0.0484503
-0.046794
-0.0450013
-0.0430836
-0.0444246
-0.0465067
-0.0484546
-0.0502565
-0.0519018
-0.0533802
-0.0546824
-0.0557999
-0.0567251
-0.0574518
-0.0579747
-0.0582902
-0.0583957
-0.0582902
-0.0579747
-0.0574518
-0.0567251
-0.0557999
-0.0546824
-0.0533802
-0.0519018
-0.0502565
-0.0484546
-0.0465067
-0.0444246
-0.0456426
-0.0478767
-0.0499688
-0.0519064
-0.0536772
-0.05527
-0.0566741
-0.0578799
-0.0588789
-0.0596638
-0.0602289
-0.0605699
-0.0606839
-0.0605699
-0.0602289
-0.0596638
-0.0588789
-0.0578799
-0.0566741
-0.05527
-0.0536772
-0.0519064
-0.0499688
-0.0478767
-0.0456426
-0.0467306
-0.0491032
-0.051327
-0.0533884
-0.0552739
-0.0569712
-0.0584684
-0.0597549
-0.0608212
-0.0616593
-0.0622628
-0.062627
-0.0627488
-0.062627
-0.0622628
-0.0616593
-0.0608212
-0.0597549
-0.0584684
-0.0569712
-0.0552739
-0.0533884
-0.051327
-0.0491032
-0.0467306
-0.0476831
-0.0501793
-0.0525207
-0.0546926
-0.0566807
-0.0584714
-0.0600519
-0.0614105
-0.0625371
-0.0634228
-0.0640606
-0.0644455
-0.0645742
-0.0644455
-0.0640606
-0.0634228
-0.0625371
-0.0614105
-0.0600519
-0.0584714
-0.0566807
-0.0546926
-0.0525207
-0.0501793
-0.0476831
-0.0484961
-0.0510992
-0.0535426
-0.0558105
-0.0578877
-0.0597596
-0.0614125
-0.0628341
-0.0640131
-0.0649403
-0.065608
-0.0660108
-0.0661455
-0.0660108
-0.065608
-0.0649403
-0.0640131
-0.0628341
-0.0614125
-0.0597596
-0.0578877
-0.0558105
-0.0535426
-0.0510992
-0.0484961